 Entering Gaussian System, Link 0=g09
 Initial command:
 /aplic/Gaussian/g09d01_prebuilt_iqtc01/g09/l1.exe "/scratch/107867.1.iqtc01.q/Gau-8448.inp" -scrdir="/scratch/107867.1.iqtc01.q/"
 Entering Link 1 = /aplic/Gaussian/g09d01_prebuilt_iqtc01/g09/l1.exe PID=      8450.
  
 Copyright (c) 1988,1990,1992,1993,1995,1998,2003,2009,2013,
            Gaussian, Inc.  All Rights Reserved.
  
 This is part of the Gaussian(R) 09 program.  It is based on
 the Gaussian(R) 03 system (copyright 2003, Gaussian, Inc.),
 the Gaussian(R) 98 system (copyright 1998, Gaussian, Inc.),
 the Gaussian(R) 94 system (copyright 1995, Gaussian, Inc.),
 the Gaussian 92(TM) system (copyright 1992, Gaussian, Inc.),
 the Gaussian 90(TM) system (copyright 1990, Gaussian, Inc.),
 the Gaussian 88(TM) system (copyright 1988, Gaussian, Inc.),
 the Gaussian 86(TM) system (copyright 1986, Carnegie Mellon
 University), and the Gaussian 82(TM) system (copyright 1983,
 Carnegie Mellon University). Gaussian is a federally registered
 trademark of Gaussian, Inc.
  
 This software contains proprietary and confidential information,
 including trade secrets, belonging to Gaussian, Inc.
  
 This software is provided under written license and may be
 used, copied, transmitted, or stored only in accord with that
 written license.
  
 The following legend is applicable only to US Government
 contracts under FAR:
  
                    RESTRICTED RIGHTS LEGEND
  
 Use, reproduction and disclosure by the US Government is
 subject to restrictions as set forth in subparagraphs (a)
 and (c) of the Commercial Computer Software - Restricted
 Rights clause in FAR 52.227-19.
  
 Gaussian, Inc.
 340 Quinnipiac St., Bldg. 40, Wallingford CT 06492
  
  
 ---------------------------------------------------------------
 Warning -- This program may not be used in any manner that
 competes with the business of Gaussian, Inc. or will provide
 assistance to any competitor of Gaussian, Inc.  The licensee
 of this program is prohibited from giving any competitor of
 Gaussian, Inc. access to this program.  By using this program,
 the user acknowledges that Gaussian, Inc. is engaged in the
 business of creating and licensing software in the field of
 computational chemistry and represents and warrants to the
 licensee that it is not a competitor of Gaussian, Inc. and that
 it will not use this program in any manner prohibited above.
 ---------------------------------------------------------------
  

 Cite this work as:
 Gaussian 09, Revision D.01,
 M. J. Frisch, G. W. Trucks, H. B. Schlegel, G. E. Scuseria, 
 M. A. Robb, J. R. Cheeseman, G. Scalmani, V. Barone, B. Mennucci, 
 G. A. Petersson, H. Nakatsuji, M. Caricato, X. Li, H. P. Hratchian, 
 A. F. Izmaylov, J. Bloino, G. Zheng, J. L. Sonnenberg, M. Hada, 
 M. Ehara, K. Toyota, R. Fukuda, J. Hasegawa, M. Ishida, T. Nakajima, 
 Y. Honda, O. Kitao, H. Nakai, T. Vreven, J. A. Montgomery, Jr., 
 J. E. Peralta, F. Ogliaro, M. Bearpark, J. J. Heyd, E. Brothers, 
 K. N. Kudin, V. N. Staroverov, T. Keith, R. Kobayashi, J. Normand, 
 K. Raghavachari, A. Rendell, J. C. Burant, S. S. Iyengar, J. Tomasi, 
 M. Cossi, N. Rega, J. M. Millam, M. Klene, J. E. Knox, J. B. Cross, 
 V. Bakken, C. Adamo, J. Jaramillo, R. Gomperts, R. E. Stratmann, 
 O. Yazyev, A. J. Austin, R. Cammi, C. Pomelli, J. W. Ochterski, 
 R. L. Martin, K. Morokuma, V. G. Zakrzewski, G. A. Voth, 
 P. Salvador, J. J. Dannenberg, S. Dapprich, A. D. Daniels, 
 O. Farkas, J. B. Foresman, J. V. Ortiz, J. Cioslowski, 
 and D. J. Fox, Gaussian, Inc., Wallingford CT, 2013.
 
 ******************************************
 Gaussian 09:  AM64L-G09RevD.01 24-Apr-2013
                29-Oct-2021 
 ******************************************
 %mem=3GB
 %NProcShared=4
 Will use up to    4 processors via shared memory.
 ------------------------------
 # B3LYP/6-31G Opt=ModRedundant
 ------------------------------
 1/14=-1,18=120,19=15,26=3,38=1/1,3;
 2/9=110,12=2,17=6,18=5,40=1/2;
 3/5=1,6=6,11=2,16=1,25=1,30=1,71=1,74=-5/1,2,3;
 4//1;
 5/5=2,38=5/2;
 6/7=2,8=2,9=2,10=2,28=1/1;
 7//1,2,3,16;
 1/14=-1,18=20,19=15,26=3/3(2);
 2/9=110/2;
 99//99;
 2/9=110/2;
 3/5=1,6=6,11=2,16=1,25=1,30=1,71=1,74=-5/1,2,3;
 4/5=5,16=3,69=1/1;
 5/5=2,38=5/2;
 7//1,2,3,16;
 1/14=-1,18=20,19=15,26=3/3(-5);
 2/9=110/2;
 6/7=2,8=2,9=2,10=2,19=2,28=1/1;
 99/9=1/99;
 -----------------
 bithiophene_test1
 -----------------
 Symbolic Z-matrix:
 Charge =  0 Multiplicity = 1
 C                    -0.12111   0.        0.12237 
 C                     0.01192   0.        1.55417 
 C                     1.28544   0.        1.97836 
 S                     2.43542   0.        0.61368 
 C                     1.05193   0.       -0.54874 
 C                     1.2592    0.       -1.98516 
 S                     2.91487   0.       -2.70904 
 C                     2.1976    0.       -4.34316 
 C                     0.85612   0.       -4.29631 
 C                     0.32373   0.       -2.96052 
 H                    -1.07273   0.       -0.36783 
 H                    -0.82854   0.        2.21739 
 H                     1.65417   0.        2.9789 
 H                     2.83415   0.       -5.19864 
 H                     0.23744   0.       -5.17007 
 H                    -0.72765   0.       -2.75934 
 
 The following ModRedundant input section has been read:
 D       4       5       6       7 S  36 10.000                                
 

 GradGradGradGradGradGradGradGradGradGradGradGradGradGradGradGradGradGrad
 Berny optimization.
 Initialization pass.
                           ----------------------------
                           !    Initial Parameters    !
                           ! (Angstroms and Degrees)  !
 --------------------------                            --------------------------
 ! Name  Definition              Value          Derivative Info.                !
 --------------------------------------------------------------------------------
 ! R1    R(1,2)                  1.438          estimate D2E/DX2                !
 ! R2    R(1,5)                  1.3514         estimate D2E/DX2                !
 ! R3    R(1,11)                 1.0705         estimate D2E/DX2                !
 ! R4    R(2,3)                  1.3423         estimate D2E/DX2                !
 ! R5    R(2,12)                 1.0706         estimate D2E/DX2                !
 ! R6    R(3,4)                  1.7846         estimate D2E/DX2                !
 ! R7    R(3,13)                 1.0663         estimate D2E/DX2                !
 ! R8    R(4,5)                  1.807          estimate D2E/DX2                !
 ! R9    R(5,6)                  1.4513         estimate D2E/DX2                !
 ! R10   R(6,7)                  1.807          estimate D2E/DX2                !
 ! R11   R(6,10)                 1.3514         estimate D2E/DX2                !
 ! R12   R(7,8)                  1.7846         estimate D2E/DX2                !
 ! R13   R(8,9)                  1.3423         estimate D2E/DX2                !
 ! R14   R(8,14)                 1.0663         estimate D2E/DX2                !
 ! R15   R(9,10)                 1.438          estimate D2E/DX2                !
 ! R16   R(9,15)                 1.0706         estimate D2E/DX2                !
 ! R17   R(10,16)                1.0705         estimate D2E/DX2                !
 ! A1    A(2,1,5)              114.4663         estimate D2E/DX2                !
 ! A2    A(2,1,11)             122.5622         estimate D2E/DX2                !
 ! A3    A(5,1,11)             122.9714         estimate D2E/DX2                !
 ! A4    A(1,2,3)              113.7302         estimate D2E/DX2                !
 ! A5    A(1,2,12)             122.969          estimate D2E/DX2                !
 ! A6    A(3,2,12)             123.3008         estimate D2E/DX2                !
 ! A7    A(2,3,4)              111.698          estimate D2E/DX2                !
 ! A8    A(2,3,13)             128.6523         estimate D2E/DX2                !
 ! A9    A(4,3,13)             119.6497         estimate D2E/DX2                !
 ! A10   A(3,4,5)               89.9172         estimate D2E/DX2                !
 ! A11   A(1,5,4)              110.1883         estimate D2E/DX2                !
 ! A12   A(1,5,6)              127.9854         estimate D2E/DX2                !
 ! A13   A(4,5,6)              121.8263         estimate D2E/DX2                !
 ! A14   A(5,6,7)              121.8265         estimate D2E/DX2                !
 ! A15   A(5,6,10)             127.9851         estimate D2E/DX2                !
 ! A16   A(7,6,10)             110.1884         estimate D2E/DX2                !
 ! A17   A(6,7,8)               89.9173         estimate D2E/DX2                !
 ! A18   A(7,8,9)              111.698          estimate D2E/DX2                !
 ! A19   A(7,8,14)             119.6495         estimate D2E/DX2                !
 ! A20   A(9,8,14)             128.6525         estimate D2E/DX2                !
 ! A21   A(8,9,10)             113.7302         estimate D2E/DX2                !
 ! A22   A(8,9,15)             123.3003         estimate D2E/DX2                !
 ! A23   A(10,9,15)            122.9695         estimate D2E/DX2                !
 ! A24   A(6,10,9)             114.4661         estimate D2E/DX2                !
 ! A25   A(6,10,16)            122.9717         estimate D2E/DX2                !
 ! A26   A(9,10,16)            122.5622         estimate D2E/DX2                !
 ! D1    D(5,1,2,3)              0.0            estimate D2E/DX2                !
 ! D2    D(5,1,2,12)           180.0            estimate D2E/DX2                !
 ! D3    D(11,1,2,3)           180.0            estimate D2E/DX2                !
 ! D4    D(11,1,2,12)            0.0            estimate D2E/DX2                !
 ! D5    D(2,1,5,4)              0.0            estimate D2E/DX2                !
 ! D6    D(2,1,5,6)            180.0            estimate D2E/DX2                !
 ! D7    D(11,1,5,4)           180.0            estimate D2E/DX2                !
 ! D8    D(11,1,5,6)             0.0            estimate D2E/DX2                !
 ! D9    D(1,2,3,4)              0.0            estimate D2E/DX2                !
 ! D10   D(1,2,3,13)           180.0            estimate D2E/DX2                !
 ! D11   D(12,2,3,4)           180.0            estimate D2E/DX2                !
 ! D12   D(12,2,3,13)            0.0            estimate D2E/DX2                !
 ! D13   D(2,3,4,5)              0.0            estimate D2E/DX2                !
 ! D14   D(13,3,4,5)           180.0            estimate D2E/DX2                !
 ! D15   D(3,4,5,1)              0.0            estimate D2E/DX2                !
 ! D16   D(3,4,5,6)            180.0            estimate D2E/DX2                !
 ! D17   D(1,5,6,7)            180.0            estimate D2E/DX2                !
 ! D18   D(1,5,6,10)             0.0            estimate D2E/DX2                !
 ! D19   D(4,5,6,7)              0.0            Scan                            !
 ! D20   D(4,5,6,10)           180.0            estimate D2E/DX2                !
 ! D21   D(5,6,7,8)            180.0            estimate D2E/DX2                !
 ! D22   D(10,6,7,8)             0.0            estimate D2E/DX2                !
 ! D23   D(5,6,10,9)           180.0            estimate D2E/DX2                !
 ! D24   D(5,6,10,16)            0.0            estimate D2E/DX2                !
 ! D25   D(7,6,10,9)             0.0            estimate D2E/DX2                !
 ! D26   D(7,6,10,16)          180.0            estimate D2E/DX2                !
 ! D27   D(6,7,8,9)              0.0            estimate D2E/DX2                !
 ! D28   D(6,7,8,14)           180.0            estimate D2E/DX2                !
 ! D29   D(7,8,9,10)             0.0            estimate D2E/DX2                !
 ! D30   D(7,8,9,15)           180.0            estimate D2E/DX2                !
 ! D31   D(14,8,9,10)          180.0            estimate D2E/DX2                !
 ! D32   D(14,8,9,15)            0.0            estimate D2E/DX2                !
 ! D33   D(8,9,10,6)             0.0            estimate D2E/DX2                !
 ! D34   D(8,9,10,16)          180.0            estimate D2E/DX2                !
 ! D35   D(15,9,10,6)          180.0            estimate D2E/DX2                !
 ! D36   D(15,9,10,16)           0.0            estimate D2E/DX2                !
 --------------------------------------------------------------------------------
 Trust Radius=3.00D-01 FncErr=1.00D-07 GrdErr=1.00D-06
 Number of optimizations in scan=  37
 Number of steps in this run=     89 maximum allowed number of steps=    100.
 GradGradGradGradGradGradGradGradGradGradGradGradGradGradGradGradGradGrad

                          Input orientation:                          
 ---------------------------------------------------------------------
 Center     Atomic      Atomic             Coordinates (Angstroms)
 Number     Number       Type             X           Y           Z
 ---------------------------------------------------------------------
      1          6           0       -0.121109    0.000000    0.122372
      2          6           0        0.011922    0.000000    1.554172
      3          6           0        1.285436    0.000000    1.978357
      4         16           0        2.435418    0.000000    0.613675
      5          6           0        1.051929    0.000000   -0.548741
      6          6           0        1.259198    0.000000   -1.985162
      7         16           0        2.914866    0.000000   -2.709043
      8          6           0        2.197598    0.000000   -4.343157
      9          6           0        0.856115    0.000000   -4.296305
     10          6           0        0.323733    0.000000   -2.960519
     11          1           0       -1.072727    0.000000   -0.367828
     12          1           0       -0.828542    0.000000    2.217388
     13          1           0        1.654166    0.000000    2.978901
     14          1           0        2.834147    0.000000   -5.198642
     15          1           0        0.237439    0.000000   -5.170074
     16          1           0       -0.727648    0.000000   -2.759343
 ---------------------------------------------------------------------
                    Distance matrix (angstroms):
                    1          2          3          4          5
     1  C    0.000000
     2  C    1.437967   0.000000
     3  C    2.328744   1.342301   0.000000
     4  S    2.603307   2.599590   1.784605   0.000000
     5  C    1.351448   2.346030   2.537863   1.807001   0.000000
     6  C    2.519315   3.752677   3.963606   2.852621   1.451298
     7  S    4.151392   5.157721   4.962536   3.357131   2.852620
     8  C    5.031635   6.289330   6.386985   4.962534   3.963603
     9  C    4.525447   5.911070   6.289332   5.157723   3.752676
    10  C    3.114820   4.525446   5.031637   4.151394   2.519314
    11  H    1.070455   2.206932   3.326487   3.642860   2.132344
    12  H    2.211233   1.070624   2.127449   3.636665   3.344793
    13  H    3.363236   2.174125   1.066326   2.490913   3.578680
    14  H    6.086602   7.318842   7.342195   5.825977   4.979747
    15  H    5.304577   6.728027   7.224843   6.187315   4.692559
    16  H    2.944855   4.376457   5.147651   4.624093   2.837896
                    6          7          8          9         10
     6  C    0.000000
     7  S    1.806998   0.000000
     8  C    2.537860   1.784601   0.000000
     9  C    2.346030   2.599588   1.342301   0.000000
    10  C    1.351450   2.603308   2.328746   1.437969   0.000000
    11  H    2.837894   4.624088   5.147647   4.376456   2.944851
    12  H    4.692556   6.187312   7.224837   6.728021   5.304570
    13  H    4.979751   5.825982   7.342197   7.318846   6.086605
    14  H    3.578675   2.490907   1.066325   2.174126   3.363238
    15  H    3.344795   3.636659   2.127443   1.070622   2.211239
    16  H    2.132349   3.642861   3.326489   2.206934   1.070455
                   11         12         13         14         15
    11  H    0.000000
    12  H    2.596723   0.000000
    13  H    4.317006   2.596871   0.000000
    14  H    6.212924   8.271203   8.262237   0.000000
    15  H    4.977761   7.463974   8.271210   2.596865   0.000000
    16  H    2.416283   4.977754   6.212929   4.317009   2.596732
                   16
    16  H    0.000000
 Stoichiometry    C8H6S2
 Framework group  CS[SG(C8H6S2)]
 Deg. of freedom    29
 Full point group                 CS      NOp   2
 Largest Abelian subgroup         CS      NOp   2
 Largest concise Abelian subgroup C1      NOp   1
                         Standard orientation:                         
 ---------------------------------------------------------------------
 Center     Atomic      Atomic             Coordinates (Angstroms)
 Number     Number       Type             X           Y           Z
 ---------------------------------------------------------------------
      1          6           0        0.602509    2.013933    0.000000
      2          6           0       -0.303554    3.130534    0.000000
      3          6           0       -1.598111    2.775719    0.000000
      4         16           0       -1.796130    1.002134    0.000000
      5          6           0        0.000000    0.804225    0.000000
      6          6           0        0.625680   -0.505275    0.000000
      7         16           0       -0.348809   -2.026989    0.000000
      8          6           0        1.155431   -2.987230    0.000000
      9          6           0        2.244813   -2.202999    0.000000
     10          6           0        1.945366   -0.796554    0.000000
     11          1           0        1.666093    2.135025    0.000000
     12          1           0        0.026815    4.148910    0.000000
     13          1           0       -2.460564    3.402796    0.000000
     14          1           0        1.101430   -4.052187    0.000000
     15          1           0        3.244659   -2.585805    0.000000
     16          1           0        2.707799   -0.045175    0.000000
 ---------------------------------------------------------------------
 Rotational constants (GHZ):      2.6653706      0.6556222      0.5261909
 Standard basis: 6-31G (6D, 7F)
 There are    88 symmetry adapted cartesian basis functions of A'  symmetry.
 There are    22 symmetry adapted cartesian basis functions of A"  symmetry.
 There are    88 symmetry adapted basis functions of A'  symmetry.
 There are    22 symmetry adapted basis functions of A"  symmetry.
   110 basis functions,   292 primitive gaussians,   110 cartesian basis functions
    43 alpha electrons       43 beta electrons
       nuclear repulsion energy       627.7203832419 Hartrees.
 NAtoms=   16 NActive=   16 NUniq=   16 SFac= 1.00D+00 NAtFMM=   60 NAOKFM=F Big=F
 Integral buffers will be    131072 words long.
 Raffenetti 2 integral format.
 Two-electron integral symmetry is turned on.
 One-electron integrals computed using PRISM.
 NBasis=   110 RedAO= T EigKep=  1.66D-03  NBF=    88    22
 NBsUse=   110 1.00D-06 EigRej= -1.00D+00 NBFU=    88    22
 ExpMin= 1.17D-01 ExpMax= 2.19D+04 ExpMxC= 3.30D+03 IAcc=1 IRadAn=         1 AccDes= 0.00D+00
 Harris functional with IExCor=  402 and IRadAn=       1 diagonalized for initial guess.
 HarFok:  IExCor=  402 AccDes= 0.00D+00 IRadAn=         1 IDoV= 1 UseB2=F ITyADJ=14
 ICtDFT=  3500011 ScaDFX=  1.000000  1.000000  1.000000  1.000000
 FoFCou: FMM=F IPFlag=           0 FMFlag=      100000 FMFlg1=           0
         NFxFlg=           0 DoJE=T BraDBF=F KetDBF=T FulRan=T
         wScrn=  0.000000 ICntrl=     500 IOpCl=  0 I1Cent=   200000004 NGrid=           0
         NMat0=    1 NMatS0=      1 NMatT0=    0 NMatD0=    1 NMtDS0=    0 NMtDT0=    0
 Petite list used in FoFCou.
 Initial guess orbital symmetries:
       Occupied  (A') (A') (A') (A') (A') (A') (A') (A') (A') (A')
                 (A') (A') (A') (A') (A') (A') (A") (A") (A') (A')
                 (A') (A') (A') (A') (A') (A') (A') (A') (A') (A')
                 (A') (A') (A') (A") (A') (A") (A') (A') (A") (A')
                 (A") (A") (A")
       Virtual   (A") (A") (A") (A') (A") (A') (A') (A') (A') (A')
                 (A') (A') (A') (A') (A') (A') (A') (A') (A') (A')
                 (A') (A') (A") (A') (A") (A') (A') (A') (A') (A")
                 (A') (A') (A") (A") (A') (A') (A") (A') (A') (A")
                 (A") (A") (A') (A") (A') (A') (A') (A') (A') (A')
                 (A') (A') (A') (A') (A') (A') (A') (A') (A') (A')
                 (A') (A') (A') (A') (A') (A') (A')
 The electronic state of the initial guess is 1-A'.
 Keep R1 ints in memory in symmetry-blocked form, NReq=29276100.
 Requested convergence on RMS density matrix=1.00D-08 within 128 cycles.
 Requested convergence on MAX density matrix=1.00D-06.
 Requested convergence on             energy=1.00D-06.
 No special actions if energy rises.
 Integral accuracy reduced to 1.0D-05 until final iterations.
 Initial convergence to 1.0D-05 achieved.  Increase integral accuracy.
 SCF Done:  E(RB3LYP) =  -1104.67055278     A.U. after   15 cycles
            NFock= 15  Conv=0.38D-08     -V/T= 2.0026

 **********************************************************************

            Population analysis using the SCF density.

 **********************************************************************

 Orbital symmetries:
       Occupied  (A') (A') (A') (A') (A') (A') (A') (A') (A') (A')
                 (A') (A') (A') (A') (A') (A') (A") (A") (A') (A')
                 (A') (A') (A') (A') (A') (A') (A') (A') (A') (A')
                 (A') (A') (A') (A") (A') (A') (A") (A') (A') (A")
                 (A") (A") (A")
       Virtual   (A") (A') (A") (A") (A') (A') (A') (A') (A") (A')
                 (A') (A') (A') (A') (A') (A') (A') (A') (A') (A")
                 (A') (A') (A') (A') (A") (A') (A') (A') (A') (A')
                 (A") (A") (A") (A') (A') (A') (A") (A") (A') (A')
                 (A") (A") (A") (A') (A') (A') (A') (A') (A') (A')
                 (A') (A') (A') (A') (A') (A') (A') (A') (A') (A')
                 (A') (A') (A') (A') (A') (A') (A')
 The electronic state is 1-A'.
 Alpha  occ. eigenvalues --  -88.89278 -88.89276 -10.23494 -10.23468 -10.21682
 Alpha  occ. eigenvalues --  -10.21681 -10.19359 -10.19358 -10.19276 -10.19275
 Alpha  occ. eigenvalues --   -7.97192  -7.97187  -5.93540  -5.93538  -5.93127
 Alpha  occ. eigenvalues --   -5.93124  -5.92596  -5.92594  -0.89974  -0.87834
 Alpha  occ. eigenvalues --   -0.77555  -0.74686  -0.73352  -0.71280  -0.60777
 Alpha  occ. eigenvalues --   -0.57749  -0.55478  -0.53235  -0.52942  -0.47725
 Alpha  occ. eigenvalues --   -0.42931  -0.41833  -0.40580  -0.40208  -0.39656
 Alpha  occ. eigenvalues --   -0.36947  -0.36716  -0.34879  -0.33280  -0.28321
 Alpha  occ. eigenvalues --   -0.25936  -0.25110  -0.21039
 Alpha virt. eigenvalues --   -0.04769   0.00443   0.02240   0.05876   0.06443
 Alpha virt. eigenvalues --    0.06742   0.10668   0.11426   0.11444   0.11880
 Alpha virt. eigenvalues --    0.14395   0.17200   0.17366   0.21791   0.24075
 Alpha virt. eigenvalues --    0.27495   0.29131   0.30599   0.32269   0.34995
 Alpha virt. eigenvalues --    0.35524   0.36103   0.36362   0.40282   0.40659
 Alpha virt. eigenvalues --    0.44646   0.44911   0.48962   0.51231   0.53113
 Alpha virt. eigenvalues --    0.53619   0.56618   0.57052   0.58369   0.60789
 Alpha virt. eigenvalues --    0.60919   0.62888   0.64999   0.65434   0.66044
 Alpha virt. eigenvalues --    0.67968   0.69284   0.73000   0.73476   0.82117
 Alpha virt. eigenvalues --    0.83658   0.87201   0.87478   0.88782   0.89207
 Alpha virt. eigenvalues --    0.91000   0.93188   0.94138   0.94498   0.97715
 Alpha virt. eigenvalues --    1.03130   1.09358   1.11776   1.16715   1.17814
 Alpha virt. eigenvalues --    1.20859   1.23310   1.33633   1.36141   1.43542
 Alpha virt. eigenvalues --    1.48249   1.56439
          Condensed to atoms (all electrons):
               1          2          3          4          5          6
     1  C    4.938410   0.478421  -0.061011  -0.091035   0.480906  -0.056512
     2  C    0.478421   4.893861   0.477858  -0.098461  -0.008706   0.008507
     3  C   -0.061011   0.477858   5.507175   0.267270  -0.068681   0.006102
     4  S   -0.091035  -0.098461   0.267270  15.249947   0.262977  -0.040660
     5  C    0.480906  -0.008706  -0.068681   0.262977   5.500418   0.313921
     6  C   -0.056512   0.008507   0.006102  -0.040660   0.313921   5.500222
     7  S    0.002203  -0.000033  -0.000412   0.015272  -0.040671   0.263070
     8  C   -0.000048   0.000003  -0.000002  -0.000412   0.006108  -0.068650
     9  C    0.000489  -0.000016   0.000003  -0.000033   0.008506  -0.008710
    10  C   -0.011401   0.000489  -0.000048   0.002203  -0.056502   0.480982
    11  H    0.364172  -0.035376   0.007179   0.005438  -0.046730  -0.009134
    12  H   -0.026600   0.356895  -0.041612   0.005286   0.005172  -0.000231
    13  H    0.003447  -0.015241   0.366891  -0.023301   0.002081  -0.000079
    14  H    0.000000   0.000000   0.000000   0.000005  -0.000079   0.002082
    15  H    0.000002   0.000000   0.000000   0.000002  -0.000231   0.005170
    16  H    0.002062   0.000118   0.000000  -0.000029  -0.009131  -0.046732
               7          8          9         10         11         12
     1  C    0.002203  -0.000048   0.000489  -0.011401   0.364172  -0.026600
     2  C   -0.000033   0.000003  -0.000016   0.000489  -0.035376   0.356895
     3  C   -0.000412  -0.000002   0.000003  -0.000048   0.007179  -0.041612
     4  S    0.015272  -0.000412  -0.000033   0.002203   0.005438   0.005286
     5  C   -0.040671   0.006108   0.008506  -0.056502  -0.046730   0.005172
     6  C    0.263070  -0.068650  -0.008710   0.480982  -0.009134  -0.000231
     7  S   15.249846   0.267335  -0.098474  -0.091055  -0.000029   0.000002
     8  C    0.267335   5.507069   0.477865  -0.061035   0.000000   0.000000
     9  C   -0.098474   0.477865   4.893890   0.478412   0.000118   0.000000
    10  C   -0.091055  -0.061035   0.478412   4.938414   0.002062   0.000002
    11  H   -0.000029   0.000000   0.000118   0.002062   0.573825  -0.002049
    12  H    0.000002   0.000000   0.000000   0.000002  -0.002049   0.561848
    13  H    0.000005   0.000000   0.000000   0.000000  -0.000129  -0.001896
    14  H   -0.023306   0.366889  -0.015247   0.003447   0.000000   0.000000
    15  H    0.005288  -0.041616   0.356887  -0.026596  -0.000001   0.000000
    16  H    0.005439   0.007178  -0.035377   0.364182   0.001804  -0.000001
              13         14         15         16
     1  C    0.003447   0.000000   0.000002   0.002062
     2  C   -0.015241   0.000000   0.000000   0.000118
     3  C    0.366891   0.000000   0.000000   0.000000
     4  S   -0.023301   0.000005   0.000002  -0.000029
     5  C    0.002081  -0.000079  -0.000231  -0.009131
     6  C   -0.000079   0.002082   0.005170  -0.046732
     7  S    0.000005  -0.023306   0.005288   0.005439
     8  C    0.000000   0.366889  -0.041616   0.007178
     9  C    0.000000  -0.015247   0.356887  -0.035377
    10  C    0.000000   0.003447  -0.026596   0.364182
    11  H   -0.000129   0.000000  -0.000001   0.001804
    12  H   -0.001896   0.000000   0.000000  -0.000001
    13  H    0.503872   0.000000   0.000000   0.000000
    14  H    0.000000   0.503883  -0.001896  -0.000129
    15  H    0.000000  -0.001896   0.561863  -0.002049
    16  H    0.000000  -0.000129  -0.002049   0.573828
 Mulliken charges:
               1
     1  C   -0.023505
     2  C   -0.058319
     3  C   -0.460711
     4  S    0.445530
     5  C   -0.349360
     6  C   -0.349349
     7  S    0.445519
     8  C   -0.460683
     9  C   -0.058313
    10  C   -0.023555
    11  H    0.138850
    12  H    0.143184
    13  H    0.164349
    14  H    0.164351
    15  H    0.143175
    16  H    0.138837
 Sum of Mulliken charges =   0.00000
 Mulliken charges with hydrogens summed into heavy atoms:
               1
     1  C    0.115346
     2  C    0.084865
     3  C   -0.296362
     4  S    0.445530
     5  C   -0.349360
     6  C   -0.349349
     7  S    0.445519
     8  C   -0.296332
     9  C    0.084862
    10  C    0.115282
 Electronic spatial extent (au):  <R**2>=           2016.1694
 Charge=              0.0000 electrons
 Dipole moment (field-independent basis, Debye):
    X=              1.6598    Y=              0.7933    Z=              0.0000  Tot=              1.8397
 Quadrupole moment (field-independent basis, Debye-Ang):
   XX=            -65.8455   YY=            -59.6844   ZZ=            -77.4049
   XY=             -3.8144   XZ=              0.0000   YZ=              0.0000
 Traceless Quadrupole moment (field-independent basis, Debye-Ang):
   XX=              1.7994   YY=              7.9606   ZZ=             -9.7600
   XY=             -3.8144   XZ=              0.0000   YZ=              0.0000
 Octapole moment (field-independent basis, Debye-Ang**2):
  XXX=              8.0517  YYY=             -1.3032  ZZZ=              0.0000  XYY=              1.2168
  XXY=              5.7342  XXZ=              0.0000  XZZ=             -2.0550  YZZ=             -0.9817
  YYZ=              0.0000  XYZ=              0.0000
 Hexadecapole moment (field-independent basis, Debye-Ang**3):
 XXXX=           -789.1953 YYYY=          -1584.4579 ZZZZ=            -88.1806 XXXY=            252.7647
 XXXZ=              0.0000 YYYX=            239.6217 YYYZ=              0.0000 ZZZX=              0.0000
 ZZZY=              0.0000 XXYY=           -393.7221 XXZZ=           -172.9715 YYZZ=           -353.2534
 XXYZ=              0.0000 YYXZ=              0.0000 ZZXY=            111.6216
 N-N= 6.277203832419D+02 E-N=-3.863621500689D+03  KE= 1.101850914315D+03
 Symmetry A'   KE= 1.015979866132D+03
 Symmetry A"   KE= 8.587104818248D+01
 Calling FoFJK, ICntrl=      2127 FMM=F ISym2X=1 I1Cent= 0 IOpClX= 0 NMat=1 NMatS=1 NMatT=0.
 ***** Axes restored to original set *****
 -------------------------------------------------------------------
 Center     Atomic                   Forces (Hartrees/Bohr)
 Number     Number              X              Y              Z
 -------------------------------------------------------------------
      1        6          -0.014253436    0.000000000    0.016972235
      2        6          -0.015699677    0.000000000   -0.014000540
      3        6           0.013610874    0.000000000    0.004545692
      4       16           0.011917922    0.000000000   -0.000477530
      5        6           0.015692196    0.000000000   -0.017996346
      6        6           0.009974376    0.000000000    0.021675091
      7       16           0.011261206    0.000000000    0.003785343
      8        6           0.014347188    0.000000000   -0.000526520
      9        6          -0.019019836    0.000000000    0.008975529
     10        6          -0.008886607    0.000000000   -0.020232704
     11        1          -0.008233793    0.000000000   -0.004152492
     12        1          -0.007342882    0.000000000    0.005498849
     13        1           0.004518213    0.000000000    0.008095049
     14        1           0.006637276    0.000000000   -0.006492005
     15        1          -0.005484854    0.000000000   -0.007348626
     16        1          -0.009038168    0.000000000    0.001678975
 -------------------------------------------------------------------
 Cartesian Forces:  Max     0.021675091 RMS     0.009364326

 GradGradGradGradGradGradGradGradGradGradGradGradGradGradGradGradGradGrad
 Berny optimization.
 FormGI is forming the generalized inverse of G from B-inverse, IUseBI=4.
 Internal  Forces:  Max     0.024967295 RMS     0.006396246
 Search for a local minimum.
 Step number   1 out of a maximum of   89 on scan point     1 out of    37
 All quantities printed in internal units (Hartrees-Bohrs-Radians)
 Mixed Optimization -- RFO/linear search
 Second derivative matrix not updated -- first step.
 ITU=  0
     Eigenvalues ---    0.01321   0.01322   0.01559   0.01661   0.01951
     Eigenvalues ---    0.01989   0.02173   0.02173   0.02241   0.02241
     Eigenvalues ---    0.02448   0.02448   0.16000   0.16000   0.16000
     Eigenvalues ---    0.16000   0.16000   0.16000   0.22120   0.22120
     Eigenvalues ---    0.23716   0.23716   0.25000   0.25000   0.25406
     Eigenvalues ---    0.25406   0.27083   0.27083   0.37151   0.37152
     Eigenvalues ---    0.37173   0.37173   0.37698   0.37698   0.38075
     Eigenvalues ---    0.38766   0.38766   0.51297   0.51297   0.55265
     Eigenvalues ---    0.552651000.000001000.000001000.000001000.00000
     Eigenvalues --- 1000.000001000.000001000.000001000.000001000.00000
     Eigenvalues --- 1000.000001000.000001000.000001000.000001000.00000
     Eigenvalues --- 1000.000001000.000001000.000001000.000001000.00000
     Eigenvalues --- 1000.000001000.000001000.000001000.000001000.00000
     Eigenvalues --- 1000.000001000.000001000.000001000.000001000.00000
     Eigenvalues --- 1000.000001000.000001000.000001000.000001000.00000
     Eigenvalues --- 1000.000001000.000001000.000001000.00000
 RFO step:  Lambda=-6.68553045D-03 EMin= 1.32132662D-02
 Linear search not attempted -- first point.
 Iteration  1 RMS(Cart)=  0.02165004 RMS(Int)=  0.00004699
 Iteration  2 RMS(Cart)=  0.00010907 RMS(Int)=  0.00000074
 Iteration  3 RMS(Cart)=  0.00000001 RMS(Int)=  0.00000074
 Iteration  1 RMS(Cart)=  0.00000000 RMS(Int)=  0.00000000
 ClnCor:  largest displacement from symmetrization is 2.77D-12 for atom     1.
 Variable       Old X    -DE/DX   Delta X   Delta X   Delta X     New X
                                 (Linear)    (Quad)   (Total)
    R1        2.71736  -0.00123   0.00000  -0.00133  -0.00133   2.71604
    R2        2.55387   0.02497   0.00000   0.04558   0.04558   2.59945
    R3        2.02287   0.00922   0.00000   0.02437   0.02437   2.04724
    R4        2.53658   0.02447   0.00000   0.04317   0.04317   2.57975
    R5        2.02319   0.00917   0.00000   0.02425   0.02425   2.04744
    R6        3.37241   0.00752   0.00000   0.02512   0.02512   3.39754
    R7        2.01506   0.00916   0.00000   0.02387   0.02387   2.03893
    R8        3.41474   0.00827   0.00000   0.02959   0.02959   3.44433
    R9        2.74256  -0.00153   0.00000  -0.00395  -0.00395   2.73861
   R10        3.41473   0.00827   0.00000   0.02958   0.02958   3.44431
   R11        2.55387   0.02490   0.00000   0.04544   0.04544   2.59931
   R12        3.37241   0.00750   0.00000   0.02504   0.02504   3.39745
   R13        2.53658   0.02448   0.00000   0.04319   0.04319   2.57977
   R14        2.01506   0.00917   0.00000   0.02390   0.02390   2.03897
   R15        2.71737  -0.00118   0.00000  -0.00120  -0.00120   2.71617
   R16        2.02318   0.00917   0.00000   0.02423   0.02423   2.04742
   R17        2.02287   0.00919   0.00000   0.02429   0.02429   2.04715
    A1        1.99781  -0.00160   0.00000  -0.00276  -0.00276   1.99505
    A2        2.13911   0.00072   0.00000   0.00091   0.00091   2.14002
    A3        2.14626   0.00088   0.00000   0.00185   0.00185   2.14811
    A4        1.98497  -0.00089   0.00000   0.00045   0.00045   1.98542
    A5        2.14621   0.00021   0.00000  -0.00165  -0.00165   2.14456
    A6        2.15200   0.00069   0.00000   0.00120   0.00120   2.15321
    A7        1.94950   0.00080   0.00000   0.00320   0.00320   1.95270
    A8        2.24541   0.00105   0.00000   0.00708   0.00708   2.25249
    A9        2.08828  -0.00185   0.00000  -0.01028  -0.01028   2.07800
   A10        1.56935   0.00083   0.00000  -0.00381  -0.00381   1.56554
   A11        1.92315   0.00086   0.00000   0.00292   0.00292   1.92607
   A12        2.23377   0.00084   0.00000   0.00349   0.00349   2.23725
   A13        2.12627  -0.00170   0.00000  -0.00641  -0.00641   2.11986
   A14        2.12627  -0.00166   0.00000  -0.00624  -0.00623   2.12004
   A15        2.23376   0.00080   0.00000   0.00336   0.00336   2.23712
   A16        1.92315   0.00086   0.00000   0.00287   0.00287   1.92602
   A17        1.56935   0.00086   0.00000  -0.00370  -0.00371   1.56565
   A18        1.94950   0.00077   0.00000   0.00310   0.00310   1.95260
   A19        2.08828  -0.00185   0.00000  -0.01034  -0.01034   2.07794
   A20        2.24541   0.00108   0.00000   0.00724   0.00724   2.25264
   A21        1.98497  -0.00089   0.00000   0.00048   0.00048   1.98545
   A22        2.15200   0.00067   0.00000   0.00113   0.00113   2.15313
   A23        2.14622   0.00022   0.00000  -0.00161  -0.00162   2.14461
   A24        1.99781  -0.00159   0.00000  -0.00275  -0.00275   1.99506
   A25        2.14626   0.00085   0.00000   0.00168   0.00168   2.14795
   A26        2.13911   0.00075   0.00000   0.00107   0.00107   2.14018
    D1        0.00000   0.00000   0.00000   0.00000   0.00000   0.00000
    D2        3.14159   0.00000   0.00000   0.00000   0.00000   3.14159
    D3        3.14159   0.00000   0.00000   0.00000   0.00000   3.14159
    D4        0.00000   0.00000   0.00000   0.00000   0.00000   0.00000
    D5        0.00000   0.00000   0.00000   0.00000   0.00000   0.00000
    D6        3.14159   0.00000   0.00000   0.00000   0.00000   3.14159
    D7        3.14159   0.00000   0.00000   0.00000   0.00000   3.14159
    D8        0.00000   0.00000   0.00000   0.00000   0.00000   0.00000
    D9        0.00000   0.00000   0.00000   0.00000   0.00000   0.00000
   D10        3.14159   0.00000   0.00000   0.00000   0.00000   3.14159
   D11        3.14159   0.00000   0.00000   0.00000   0.00000   3.14159
   D12        0.00000   0.00000   0.00000   0.00000   0.00000   0.00000
   D13        0.00000   0.00000   0.00000   0.00000   0.00000   0.00000
   D14        3.14159   0.00000   0.00000   0.00000   0.00000   3.14159
   D15        0.00000   0.00000   0.00000   0.00000   0.00000   0.00000
   D16        3.14159   0.00000   0.00000   0.00000   0.00000   3.14159
   D17        3.14159   0.00000   0.00000   0.00000   0.00000   3.14159
   D18        0.00000   0.00000   0.00000   0.00000   0.00000   0.00000
   D19        0.00000   0.00000   0.00000   0.00000   0.00000   0.00000
   D20        3.14159   0.00000   0.00000   0.00000   0.00000   3.14159
   D21        3.14159   0.00000   0.00000   0.00000   0.00000   3.14159
   D22        0.00000   0.00000   0.00000   0.00000   0.00000   0.00000
   D23        3.14159   0.00000   0.00000   0.00000   0.00000   3.14159
   D24        0.00000   0.00000   0.00000   0.00000   0.00000   0.00000
   D25        0.00000   0.00000   0.00000   0.00000   0.00000   0.00000
   D26        3.14159   0.00000   0.00000   0.00000   0.00000   3.14159
   D27        0.00000   0.00000   0.00000   0.00000   0.00000   0.00000
   D28        3.14159   0.00000   0.00000   0.00000   0.00000   3.14159
   D29        0.00000   0.00000   0.00000   0.00000   0.00000   0.00000
   D30        3.14159   0.00000   0.00000   0.00000   0.00000   3.14159
   D31        3.14159   0.00000   0.00000   0.00000   0.00000   3.14159
   D32        0.00000   0.00000   0.00000   0.00000   0.00000   0.00000
   D33        0.00000   0.00000   0.00000   0.00000   0.00000   0.00000
   D34        3.14159   0.00000   0.00000   0.00000   0.00000   3.14159
   D35        3.14159   0.00000   0.00000   0.00000   0.00000   3.14159
   D36        0.00000   0.00000   0.00000   0.00000   0.00000   0.00000
         Item               Value     Threshold  Converged?
 Maximum Force            0.024967     0.000450     NO 
 RMS     Force            0.006437     0.000300     NO 
 Maximum Displacement     0.067904     0.001800     NO 
 RMS     Displacement     0.021685     0.001200     NO 
 Predicted change in Energy=-3.392599D-03
 GradGradGradGradGradGradGradGradGradGradGradGradGradGradGradGradGradGrad

                          Input orientation:                          
 ---------------------------------------------------------------------
 Center     Atomic      Atomic             Coordinates (Angstroms)
 Number     Number       Type             X           Y           Z
 ---------------------------------------------------------------------
      1          6           0       -0.139989    0.000000    0.137354
      2          6           0        0.001855    0.000000    1.567603
      3          6           0        1.299502    0.000000    1.991544
      4         16           0        2.454536    0.000000    0.613740
      5          6           0        1.051625    0.000000   -0.549845
      6          6           0        1.258656    0.000000   -1.984189
      7         16           0        2.933218    0.000000   -2.703844
      8          6           0        2.214860    0.000000   -4.351943
      9          6           0        0.850287    0.000000   -4.312033
     10          6           0        0.309930    0.000000   -2.980137
     11          1           0       -1.105687    0.000000   -0.353645
     12          1           0       -0.845620    0.000000    2.242634
     13          1           0        1.685564    0.000000    2.999067
     14          1           0        2.870080    0.000000   -5.209190
     15          1           0        0.228221    0.000000   -5.199102
     16          1           0       -0.755097    0.000000   -2.781962
 ---------------------------------------------------------------------
                    Distance matrix (angstroms):
                    1          2          3          4          5
     1  C    0.000000
     2  C    1.437266   0.000000
     3  C    2.347373   1.365143   0.000000
     4  S    2.637898   2.631634   1.797900   0.000000
     5  C    1.375568   2.363388   2.553449   1.822660   0.000000
     6  C    2.541093   3.767596   3.975943   2.859959   1.449209
     7  S    4.185333   5.180555   4.971488   3.351940   2.860089
     8  C    5.069428   6.319685   6.409189   4.971464   3.976062
     9  C    4.558255   5.940535   6.319563   5.180430   3.767572
    10  C    3.149790   4.558163   5.069208   4.185127   2.540951
    11  H    1.083352   2.217621   3.359293   3.689312   2.166216
    12  H    2.220387   1.083458   2.159768   3.680262   3.376015
    13  H    3.394414   2.209970   1.078956   2.506213   3.605087
    14  H    6.135638   7.358780   7.370026   5.837739   5.001628
    15  H    5.349143   6.770490   7.270009   6.224597   4.721608
    16  H    2.983415   4.414940   5.196897   4.672530   2.871688
                    6          7          8          9         10
     6  C    0.000000
     7  S    1.822652   0.000000
     8  C    2.553543   1.797851   0.000000
     9  C    2.363392   2.631516   1.365157   0.000000
    10  C    1.375498   2.637798   2.347469   1.437335   0.000000
    11  H    2.872072   4.672921   5.197348   4.415277   2.983695
    12  H    4.721654   6.224730   7.270144   6.770507   5.349078
    13  H    5.001509   5.837793   7.370041   7.358659   6.135409
    14  H    3.605179   2.506142   1.078975   2.210081   3.394561
    15  H    3.376012   3.680125   2.159725   1.083446   2.220468
    16  H    2.166020   3.689142   3.359387   2.217741   1.083308
                   11         12         13         14         15
    11  H    0.000000
    12  H    2.609271   0.000000
    13  H    4.362540   2.641795   0.000000
    14  H    6.275592   8.326831   8.293284   0.000000
    15  H    5.025710   7.518814   8.326693   2.641878   0.000000
    16  H    2.453495   5.025412   6.275119   4.362722   2.609497
                   16
    16  H    0.000000
 Stoichiometry    C8H6S2
 Framework group  CS[SG(C8H6S2)]
 Deg. of freedom    29
 Full point group                 CS      NOp   2
 Largest Abelian subgroup         CS      NOp   2
 Largest concise Abelian subgroup C1      NOp   1
                         Standard orientation:                         
 ---------------------------------------------------------------------
 Center     Atomic      Atomic             Coordinates (Angstroms)
 Number     Number       Type             X           Y           Z
 ---------------------------------------------------------------------
      1          6           0        1.978597    0.788622    0.000000
      2          6           0        2.279316    2.194075    0.000000
      3          6           0        1.172561    2.993268    0.000000
      4         16           0       -0.347381    2.032943    0.000000
      5          6           0        0.634252    0.497206    0.000000
      6          6           0        0.000000   -0.805841    0.000000
      7         16           0       -1.814215   -0.981008    0.000000
      8          6           0       -1.632219   -2.769624    0.000000
      9          6           0       -0.320379   -3.147417    0.000000
     10          6           0        0.600129   -2.043516    0.000000
     11          1           0        2.748755    0.026711    0.000000
     12          1           0        3.292180    2.578767    0.000000
     13          1           0        1.111866    4.070515    0.000000
     14          1           0       -2.517495   -3.386448    0.000000
     15          1           0        0.001801   -4.181852    0.000000
     16          1           0        1.674894   -2.179295    0.000000
 ---------------------------------------------------------------------
 Rotational constants (GHZ):      2.5961360      0.6511570      0.5205851
 Standard basis: 6-31G (6D, 7F)
 There are    88 symmetry adapted cartesian basis functions of A'  symmetry.
 There are    22 symmetry adapted cartesian basis functions of A"  symmetry.
 There are    88 symmetry adapted basis functions of A'  symmetry.
 There are    22 symmetry adapted basis functions of A"  symmetry.
   110 basis functions,   292 primitive gaussians,   110 cartesian basis functions
    43 alpha electrons       43 beta electrons
       nuclear repulsion energy       622.9543875265 Hartrees.
 NAtoms=   16 NActive=   16 NUniq=   16 SFac= 1.00D+00 NAtFMM=   60 NAOKFM=F Big=F
 Integral buffers will be    131072 words long.
 Raffenetti 2 integral format.
 Two-electron integral symmetry is turned on.
 One-electron integrals computed using PRISM.
 NBasis=   110 RedAO= T EigKep=  1.81D-03  NBF=    88    22
 NBsUse=   110 1.00D-06 EigRej= -1.00D+00 NBFU=    88    22
 Initial guess from the checkpoint file:  "/scratch/107867.1.iqtc01.q/Gau-8450.chk"
 B after Tr=     0.000000    0.000000    0.000000
         Rot=    0.900736    0.000000    0.000000    0.434367 Ang=  51.49 deg.
 Initial guess orbital symmetries:
       Occupied  (A') (A') (A') (A') (A') (A') (A') (A') (A') (A')
                 (A') (A') (A') (A') (A') (A') (A") (A") (A') (A')
                 (A') (A') (A') (A') (A') (A') (A') (A') (A') (A')
                 (A') (A') (A') (A") (A') (A') (A") (A') (A') (A")
                 (A") (A") (A")
       Virtual   (A') (A') (A') (A') (A') (A') (A') (A') (A') (A')
                 (A') (A') (A') (A') (A') (A') (A') (A') (A') (A')
                 (A') (A') (A') (A') (A') (A') (A') (A') (A') (A')
                 (A') (A') (A') (A') (A') (A') (A') (A') (A') (A')
                 (A') (A') (A') (A') (A') (A') (A') (A') (A') (A')
                 (A') (A') (A') (A") (A") (A") (A") (A") (A") (A")
                 (A") (A") (A") (A") (A") (A") (A")
 ExpMin= 1.17D-01 ExpMax= 2.19D+04 ExpMxC= 3.30D+03 IAcc=1 IRadAn=         1 AccDes= 0.00D+00
 Harris functional with IExCor=  402 and IRadAn=       1 diagonalized for initial guess.
 HarFok:  IExCor=  402 AccDes= 0.00D+00 IRadAn=         1 IDoV= 1 UseB2=F ITyADJ=14
 ICtDFT=  3500011 ScaDFX=  1.000000  1.000000  1.000000  1.000000
 FoFCou: FMM=F IPFlag=           0 FMFlag=      100000 FMFlg1=           0
         NFxFlg=           0 DoJE=T BraDBF=F KetDBF=T FulRan=T
         wScrn=  0.000000 ICntrl=     500 IOpCl=  0 I1Cent=   200000004 NGrid=           0
         NMat0=    1 NMatS0=      1 NMatT0=    0 NMatD0=    1 NMtDS0=    0 NMtDT0=    0
 Petite list used in FoFCou.
 Keep R1 ints in memory in symmetry-blocked form, NReq=29276100.
 Requested convergence on RMS density matrix=1.00D-08 within 128 cycles.
 Requested convergence on MAX density matrix=1.00D-06.
 Requested convergence on             energy=1.00D-06.
 No special actions if energy rises.
 Integral accuracy reduced to 1.0D-05 until final iterations.
 Initial convergence to 1.0D-05 achieved.  Increase integral accuracy.
 SCF Done:  E(RB3LYP) =  -1104.67382639     A.U. after   13 cycles
            NFock= 13  Conv=0.65D-08     -V/T= 2.0030
 Calling FoFJK, ICntrl=      2127 FMM=F ISym2X=1 I1Cent= 0 IOpClX= 0 NMat=1 NMatS=1 NMatT=0.
 ***** Axes restored to original set *****
 -------------------------------------------------------------------
 Center     Atomic                   Forces (Hartrees/Bohr)
 Number     Number              X              Y              Z
 -------------------------------------------------------------------
      1        6          -0.000026319    0.000000000    0.005060492
      2        6           0.000229366    0.000000000   -0.004231790
      3        6          -0.000808621    0.000000000    0.002355682
      4       16          -0.000962898    0.000000000    0.000548884
      5        6           0.000517048    0.000000000   -0.006173170
      6        6          -0.001233218    0.000000000    0.006102148
      7       16          -0.000719575    0.000000000   -0.000701042
      8        6          -0.000133474    0.000000000   -0.002450073
      9        6          -0.000980816    0.000000000    0.004148752
     10        6           0.001424796    0.000000000   -0.005025827
     11        1           0.000674647    0.000000000   -0.000481929
     12        1           0.000600643    0.000000000    0.000316793
     13        1           0.000232318    0.000000000   -0.000349297
     14        1           0.000094713    0.000000000    0.000405324
     15        1           0.000646141    0.000000000   -0.000140870
     16        1           0.000445249    0.000000000    0.000615922
 -------------------------------------------------------------------
 Cartesian Forces:  Max     0.006173170 RMS     0.001953307

 GradGradGradGradGradGradGradGradGradGradGradGradGradGradGradGradGradGrad
 Berny optimization.
 Using GEDIIS/GDIIS optimizer.
 FormGI is forming the generalized inverse of G from B-inverse, IUseBI=4.
 Internal  Forces:  Max     0.002989202 RMS     0.000817498
 Search for a local minimum.
 Step number   2 out of a maximum of   89 on scan point     1 out of    37
 All quantities printed in internal units (Hartrees-Bohrs-Radians)
 Mixed Optimization -- En-DIIS/RFO-DIIS
 Update second derivatives using D2CorX and points    1    2
 DE= -3.27D-03 DEPred=-3.39D-03 R= 9.65D-01
 TightC=F SS=  1.41D+00  RLast= 1.22D-01 DXNew= 5.0454D-01 3.6638D-01
 Trust test= 9.65D-01 RLast= 1.22D-01 DXMaxT set to 3.66D-01
 ITU=  1  0
 Use linear search instead of GDIIS.
     Eigenvalues ---    0.01322   0.01323   0.01562   0.01665   0.01957
     Eigenvalues ---    0.01995   0.02177   0.02177   0.02248   0.02248
     Eigenvalues ---    0.02450   0.02450   0.15872   0.16000   0.16000
     Eigenvalues ---    0.16000   0.16000   0.16057   0.22063   0.22119
     Eigenvalues ---    0.23388   0.23717   0.25000   0.25011   0.25390
     Eigenvalues ---    0.25409   0.27087   0.27308   0.36644   0.37151
     Eigenvalues ---    0.37163   0.37173   0.37531   0.37698   0.38315
     Eigenvalues ---    0.38792   0.39765   0.50772   0.51325   0.55282
     Eigenvalues ---    0.568651000.000001000.000001000.000001000.00000
     Eigenvalues --- 1000.000001000.000001000.000001000.000001000.00000
     Eigenvalues --- 1000.000001000.000001000.000001000.000001000.00000
     Eigenvalues --- 1000.000001000.000001000.000001000.000001000.00000
     Eigenvalues --- 1000.000001000.000001000.000001000.000001000.00000
     Eigenvalues --- 1000.000001000.000001000.000001000.000001000.00000
     Eigenvalues --- 1000.000001000.000001000.000001000.000001000.00000
     Eigenvalues --- 1000.000001000.000001000.000001000.00000
 RFO step:  Lambda=-1.88416005D-04 EMin= 1.32169201D-02
 Quartic linear search produced a step of -0.00193.
 Iteration  1 RMS(Cart)=  0.00312561 RMS(Int)=  0.00000626
 Iteration  2 RMS(Cart)=  0.00000759 RMS(Int)=  0.00000088
 Iteration  3 RMS(Cart)=  0.00000000 RMS(Int)=  0.00000088
 Iteration  1 RMS(Cart)=  0.00000000 RMS(Int)=  0.00000000
 ClnCor:  largest displacement from symmetrization is 4.38D-13 for atom     4.
 Variable       Old X    -DE/DX   Delta X   Delta X   Delta X     New X
                                 (Linear)    (Quad)   (Total)
    R1        2.71604  -0.00246   0.00000  -0.00645  -0.00645   2.70959
    R2        2.59945   0.00073  -0.00009   0.00265   0.00256   2.60201
    R3        2.04724  -0.00039  -0.00005  -0.00030  -0.00035   2.04689
    R4        2.57975  -0.00059  -0.00008   0.00016   0.00007   2.57982
    R5        2.04744  -0.00027  -0.00005  -0.00001  -0.00006   2.04738
    R6        3.39754   0.00007  -0.00005   0.00123   0.00118   3.39872
    R7        2.03893  -0.00024  -0.00005   0.00007   0.00003   2.03896
    R8        3.44433   0.00037  -0.00006   0.00263   0.00258   3.44691
    R9        2.73861  -0.00299   0.00001  -0.00795  -0.00794   2.73067
   R10        3.44431   0.00033  -0.00006   0.00253   0.00248   3.44679
   R11        2.59931   0.00088  -0.00009   0.00293   0.00285   2.60216
   R12        3.39745   0.00013  -0.00005   0.00141   0.00136   3.39881
   R13        2.57977  -0.00061  -0.00008   0.00012   0.00003   2.57981
   R14        2.03897  -0.00027  -0.00005   0.00001  -0.00003   2.03893
   R15        2.71617  -0.00257   0.00000  -0.00671  -0.00671   2.70946
   R16        2.04742  -0.00025  -0.00005   0.00005   0.00000   2.04742
   R17        2.04715  -0.00032  -0.00005  -0.00014  -0.00019   2.04697
    A1        1.99505   0.00114   0.00001   0.00444   0.00445   1.99950
    A2        2.14002   0.00018   0.00000   0.00244   0.00244   2.14247
    A3        2.14811  -0.00132   0.00000  -0.00689  -0.00689   2.14122
    A4        1.98542   0.00103   0.00000   0.00391   0.00391   1.98933
    A5        2.14456   0.00012   0.00000   0.00200   0.00200   2.14656
    A6        2.15321  -0.00116   0.00000  -0.00591  -0.00591   2.14730
    A7        1.95270  -0.00128  -0.00001  -0.00584  -0.00585   1.94685
    A8        2.25249   0.00099  -0.00001   0.00538   0.00537   2.25786
    A9        2.07800   0.00029   0.00002   0.00046   0.00048   2.07848
   A10        1.56554   0.00100   0.00001   0.00484   0.00485   1.57039
   A11        1.92607  -0.00189  -0.00001  -0.00735  -0.00736   1.91871
   A12        2.23725   0.00096  -0.00001   0.00386   0.00386   2.24111
   A13        2.11986   0.00094   0.00001   0.00349   0.00350   2.12336
   A14        2.12004   0.00085   0.00001   0.00314   0.00315   2.12319
   A15        2.23712   0.00102  -0.00001   0.00408   0.00408   2.24120
   A16        1.92602  -0.00187  -0.00001  -0.00722  -0.00723   1.91880
   A17        1.56565   0.00094   0.00001   0.00461   0.00462   1.57027
   A18        1.95260  -0.00121  -0.00001  -0.00560  -0.00561   1.94699
   A19        2.07794   0.00028   0.00002   0.00053   0.00055   2.07849
   A20        2.25264   0.00093  -0.00001   0.00507   0.00506   2.25770
   A21        1.98545   0.00101   0.00000   0.00378   0.00378   1.98923
   A22        2.15313  -0.00113   0.00000  -0.00571  -0.00571   2.14741
   A23        2.14461   0.00011   0.00000   0.00193   0.00193   2.14654
   A24        1.99506   0.00113   0.00001   0.00443   0.00444   1.99950
   A25        2.14795  -0.00127   0.00000  -0.00660  -0.00660   2.14134
   A26        2.14018   0.00014   0.00000   0.00217   0.00216   2.14235
    D1        0.00000   0.00000   0.00000   0.00000   0.00000   0.00000
    D2        3.14159   0.00000   0.00000   0.00000   0.00000   3.14159
    D3        3.14159   0.00000   0.00000   0.00000   0.00000   3.14159
    D4        0.00000   0.00000   0.00000   0.00000   0.00000   0.00000
    D5        0.00000   0.00000   0.00000   0.00000   0.00000   0.00000
    D6        3.14159   0.00000   0.00000   0.00000   0.00000   3.14159
    D7        3.14159   0.00000   0.00000   0.00000   0.00000   3.14159
    D8        0.00000   0.00000   0.00000   0.00000   0.00000   0.00000
    D9        0.00000   0.00000   0.00000   0.00000   0.00000   0.00000
   D10        3.14159   0.00000   0.00000   0.00000   0.00000   3.14159
   D11        3.14159   0.00000   0.00000   0.00000   0.00000   3.14159
   D12        0.00000   0.00000   0.00000   0.00000   0.00000   0.00000
   D13        0.00000   0.00000   0.00000   0.00000   0.00000   0.00000
   D14        3.14159   0.00000   0.00000   0.00000   0.00000   3.14159
   D15        0.00000   0.00000   0.00000   0.00000   0.00000   0.00000
   D16        3.14159   0.00000   0.00000   0.00000   0.00000   3.14159
   D17        3.14159   0.00000   0.00000   0.00000   0.00000   3.14159
   D18        0.00000   0.00000   0.00000   0.00000   0.00000   0.00000
   D19        0.00000   0.00000   0.00000   0.00000   0.00000   0.00000
   D20        3.14159   0.00000   0.00000   0.00000   0.00000   3.14159
   D21        3.14159   0.00000   0.00000   0.00000   0.00000   3.14159
   D22        0.00000   0.00000   0.00000   0.00000   0.00000   0.00000
   D23        3.14159   0.00000   0.00000   0.00000   0.00000   3.14159
   D24        0.00000   0.00000   0.00000   0.00000   0.00000   0.00000
   D25        0.00000   0.00000   0.00000   0.00000   0.00000   0.00000
   D26        3.14159   0.00000   0.00000   0.00000   0.00000   3.14159
   D27        0.00000   0.00000   0.00000   0.00000   0.00000   0.00000
   D28        3.14159   0.00000   0.00000   0.00000   0.00000   3.14159
   D29        0.00000   0.00000   0.00000   0.00000   0.00000   0.00000
   D30        3.14159   0.00000   0.00000   0.00000   0.00000   3.14159
   D31        3.14159   0.00000   0.00000   0.00000   0.00000   3.14159
   D32        0.00000   0.00000   0.00000   0.00000   0.00000   0.00000
   D33        0.00000   0.00000   0.00000   0.00000   0.00000   0.00000
   D34        3.14159   0.00000   0.00000   0.00000   0.00000   3.14159
   D35        3.14159   0.00000   0.00000   0.00000   0.00000   3.14159
   D36        0.00000   0.00000   0.00000   0.00000   0.00000   0.00000
         Item               Value     Threshold  Converged?
 Maximum Force            0.002989     0.000450     NO 
 RMS     Force            0.000823     0.000300     NO 
 Maximum Displacement     0.010653     0.001800     NO 
 RMS     Displacement     0.003126     0.001200     NO 
 Predicted change in Energy=-9.430868D-05
 GradGradGradGradGradGradGradGradGradGradGradGradGradGradGradGradGradGrad

                          Input orientation:                          
 ---------------------------------------------------------------------
 Center     Atomic      Atomic             Coordinates (Angstroms)
 Number     Number       Type             X           Y           Z
 ---------------------------------------------------------------------
      1          6           0       -0.138920    0.000000    0.140515
      2          6           0        0.001852    0.000000    1.567441
      3          6           0        1.297647    0.000000    1.997134
      4         16           0        2.451121    0.000000    0.617210
      5          6           0        1.051155    0.000000   -0.552046
      6          6           0        1.257477    0.000000   -1.982246
      7         16           0        2.930911    0.000000   -2.707820
      8          6           0        2.214562    0.000000   -4.357580
      9          6           0        0.850151    0.000000   -4.311917
     10          6           0        0.311709    0.000000   -2.983076
     11          1           0       -1.102997    0.000000   -0.353253
     12          1           0       -0.844597    0.000000    2.243710
     13          1           0        1.684665    0.000000    3.004306
     14          1           0        2.870493    0.000000   -5.214262
     15          1           0        0.229415    0.000000   -5.199915
     16          1           0       -0.752702    0.000000   -2.782150
 ---------------------------------------------------------------------
                    Distance matrix (angstroms):
                    1          2          3          4          5
     1  C    0.000000
     2  C    1.433853   0.000000
     3  C    2.347500   1.365182   0.000000
     4  S    2.633543   2.627139   1.798525   0.000000
     5  C    1.376924   2.365007   2.561069   1.824024   0.000000
     6  C    2.540874   3.765219   3.979583   2.860412   1.445006
     7  S    4.187706   5.182397   4.980376   3.359468   2.860218
     8  C    5.076587   6.324710   6.420524   4.980412   3.979398
     9  C    4.560966   5.940240   6.324901   5.182605   3.765240
    10  C    3.155929   4.561054   5.076866   4.187976   2.541001
    11  H    1.083167   2.215796   3.359674   3.684230   2.163304
    12  H    2.218425   1.083428   2.156388   3.675222   3.377888
    13  H    3.395108   2.212791   1.078971   2.507126   3.612336
    14  H    6.142492   7.363464   7.380927   5.846533   5.004623
    15  H    5.353118   6.771181   7.275894   6.226952   4.719952
    16  H    2.986419   4.414555   5.200528   4.671202   2.868321
                    6          7          8          9         10
     6  C    0.000000
     7  S    1.823962   0.000000
     8  C    2.560903   1.798574   0.000000
     9  C    2.365011   2.627297   1.365175   0.000000
    10  C    1.377003   2.633626   2.347362   1.433784   0.000000
    11  H    2.868006   4.670803   5.200080   4.414273   2.986195
    12  H    4.719896   6.226726   7.275678   6.771146   5.353162
    13  H    5.004817   5.846495   7.380932   7.363663   6.142780
    14  H    3.612167   2.507171   1.078958   2.212693   3.394932
    15  H    3.377914   3.675408   2.156464   1.083446   2.218366
    16  H    2.163485   3.684363   3.359559   2.215699   1.083210
                   11         12         13         14         15
    11  H    0.000000
    12  H    2.609787   0.000000
    13  H    4.363973   2.641150   0.000000
    14  H    6.278378   8.332061   8.303677   0.000000
    15  H    5.026476   7.520709   8.332286   2.641117   0.000000
    16  H    2.454027   5.026700   6.278840   4.363795   2.609625
                   16
    16  H    0.000000
 Stoichiometry    C8H6S2
 Framework group  CS[SG(C8H6S2)]
 Deg. of freedom    29
 Full point group                 CS      NOp   2
 Largest Abelian subgroup         CS      NOp   2
 Largest concise Abelian subgroup C1      NOp   1
                         Standard orientation:                         
 ---------------------------------------------------------------------
 Center     Atomic      Atomic             Coordinates (Angstroms)
 Number     Number       Type             X           Y           Z
 ---------------------------------------------------------------------
      1          6           0        0.594694    2.045712    0.000000
      2          6           0       -0.324067    3.146535    0.000000
      3          6           0       -1.637222    2.773246    0.000000
      4         16           0       -1.815150    0.983544    0.000000
      5          6           0        0.000000    0.803835    0.000000
      6          6           0        0.633577   -0.494865    0.000000
      7         16           0       -0.342262   -2.035831    0.000000
      8          6           0        1.177765   -2.997280    0.000000
      9          6           0        2.280371   -2.192319    0.000000
     10          6           0        1.978429   -0.790689    0.000000
     11          1           0        1.669568    2.179491    0.000000
     12          1           0       -0.004369    4.181720    0.000000
     13          1           0       -2.523589    3.388496    0.000000
     14          1           0        1.117058   -4.074529    0.000000
     15          1           0        3.292997   -2.577602    0.000000
     16          1           0        2.745651   -0.026024    0.000000
 ---------------------------------------------------------------------
 Rotational constants (GHZ):      2.6035194      0.6495493      0.5198520
 Standard basis: 6-31G (6D, 7F)
 There are    88 symmetry adapted cartesian basis functions of A'  symmetry.
 There are    22 symmetry adapted cartesian basis functions of A"  symmetry.
 There are    88 symmetry adapted basis functions of A'  symmetry.
 There are    22 symmetry adapted basis functions of A"  symmetry.
   110 basis functions,   292 primitive gaussians,   110 cartesian basis functions
    43 alpha electrons       43 beta electrons
       nuclear repulsion energy       622.8506188252 Hartrees.
 NAtoms=   16 NActive=   16 NUniq=   16 SFac= 1.00D+00 NAtFMM=   60 NAOKFM=F Big=F
 Integral buffers will be    131072 words long.
 Raffenetti 2 integral format.
 Two-electron integral symmetry is turned on.
 One-electron integrals computed using PRISM.
 NBasis=   110 RedAO= T EigKep=  1.81D-03  NBF=    88    22
 NBsUse=   110 1.00D-06 EigRej= -1.00D+00 NBFU=    88    22
 Initial guess from the checkpoint file:  "/scratch/107867.1.iqtc01.q/Gau-8450.chk"
 B after Tr=     0.000000    0.000000    0.000000
         Rot=    0.898966    0.000000    0.000000   -0.438019 Ang= -51.96 deg.
 Initial guess orbital symmetries:
       Occupied  (A') (A') (A') (A') (A') (A') (A') (A') (A') (A')
                 (A') (A') (A') (A') (A') (A') (A") (A") (A') (A')
                 (A') (A') (A') (A') (A') (A') (A') (A') (A') (A')
                 (A') (A') (A') (A") (A') (A') (A") (A') (A') (A")
                 (A") (A") (A")
       Virtual   (A') (A') (A') (A') (A') (A') (A') (A') (A') (A')
                 (A') (A') (A') (A') (A') (A') (A') (A') (A') (A')
                 (A') (A') (A') (A') (A') (A') (A') (A') (A') (A')
                 (A') (A') (A') (A') (A') (A') (A') (A') (A') (A')
                 (A') (A') (A') (A') (A') (A') (A') (A') (A') (A')
                 (A') (A') (A') (A") (A") (A") (A") (A") (A") (A")
                 (A") (A") (A") (A") (A") (A") (A")
 Keep R1 ints in memory in symmetry-blocked form, NReq=29276100.
 Requested convergence on RMS density matrix=1.00D-08 within 128 cycles.
 Requested convergence on MAX density matrix=1.00D-06.
 Requested convergence on             energy=1.00D-06.
 No special actions if energy rises.
 SCF Done:  E(RB3LYP) =  -1104.67393652     A.U. after   10 cycles
            NFock= 10  Conv=0.53D-08     -V/T= 2.0030
 Calling FoFJK, ICntrl=      2127 FMM=F ISym2X=1 I1Cent= 0 IOpClX= 0 NMat=1 NMatS=1 NMatT=0.
 ***** Axes restored to original set *****
 -------------------------------------------------------------------
 Center     Atomic                   Forces (Hartrees/Bohr)
 Number     Number              X              Y              Z
 -------------------------------------------------------------------
      1        6          -0.000260421    0.000000000    0.001829524
      2        6          -0.000266593    0.000000000   -0.001407660
      3        6          -0.000277671    0.000000000    0.000201804
      4       16           0.000424032    0.000000000    0.000093961
      5        6           0.000124095    0.000000000   -0.001393788
      6        6          -0.000312902    0.000000000    0.001351980
      7       16           0.000392108    0.000000000   -0.000083570
      8        6          -0.000178146    0.000000000   -0.000331131
      9        6          -0.000640598    0.000000000    0.001260928
     10        6           0.000248452    0.000000000   -0.001655268
     11        1           0.000190078    0.000000000   -0.000132358
     12        1           0.000203646    0.000000000    0.000022177
     13        1           0.000004290    0.000000000   -0.000405302
     14        1          -0.000085434    0.000000000    0.000386602
     15        1           0.000226104    0.000000000    0.000047773
     16        1           0.000208960    0.000000000    0.000214330
 -------------------------------------------------------------------
 Cartesian Forces:  Max     0.001829524 RMS     0.000564977

 GradGradGradGradGradGradGradGradGradGradGradGradGradGradGradGradGradGrad
 Berny optimization.
 Using GEDIIS/GDIIS optimizer.
 FormGI is forming the generalized inverse of G from B-inverse, IUseBI=4.
 Internal  Forces:  Max     0.001419402 RMS     0.000290607
 Search for a local minimum.
 Step number   3 out of a maximum of   89 on scan point     1 out of    37
 All quantities printed in internal units (Hartrees-Bohrs-Radians)
 Mixed Optimization -- En-DIIS/RFO-DIIS
 Swapping is turned off.
 Update second derivatives using D2CorX and points    1    2    3
 DE= -1.10D-04 DEPred=-9.43D-05 R= 1.17D+00
 TightC=F SS=  1.41D+00  RLast= 2.74D-02 DXNew= 6.1618D-01 8.2274D-02
 Trust test= 1.17D+00 RLast= 2.74D-02 DXMaxT set to 3.66D-01
 ITU=  1  1  0
     Eigenvalues ---    0.01321   0.01322   0.01561   0.01665   0.01956
     Eigenvalues ---    0.01995   0.02175   0.02176   0.02248   0.02249
     Eigenvalues ---    0.02448   0.02448   0.13956   0.16000   0.16000
     Eigenvalues ---    0.16000   0.16003   0.16037   0.22103   0.22261
     Eigenvalues ---    0.23074   0.23739   0.25000   0.25051   0.25409
     Eigenvalues ---    0.26397   0.27089   0.28261   0.33608   0.37152
     Eigenvalues ---    0.37164   0.37179   0.37486   0.37699   0.38095
     Eigenvalues ---    0.38661   0.38856   0.50857   0.51384   0.55279
     Eigenvalues ---    0.568171000.000001000.000001000.000001000.00000
     Eigenvalues --- 1000.000001000.000001000.000001000.000001000.00000
     Eigenvalues --- 1000.000001000.000001000.000001000.000001000.00000
     Eigenvalues --- 1000.000001000.000001000.000001000.000001000.00000
     Eigenvalues --- 1000.000001000.000001000.000001000.000001000.00000
     Eigenvalues --- 1000.000001000.000001000.000001000.000001000.00000
     Eigenvalues --- 1000.000001000.000001000.000001000.000001000.00000
     Eigenvalues --- 1000.000001000.000001000.000001000.00000
 En-DIIS/RFO-DIIS IScMMF=        0 using points:     3    2
 RFO step:  Lambda=-1.30465415D-05.
 DidBck=F Rises=F RFO-DIIS coefs:    1.19687   -0.19687
 Iteration  1 RMS(Cart)=  0.00170092 RMS(Int)=  0.00000076
 Iteration  2 RMS(Cart)=  0.00000079 RMS(Int)=  0.00000018
 Iteration  1 RMS(Cart)=  0.00000000 RMS(Int)=  0.00000000
 ClnCor:  largest displacement from symmetrization is 1.33D-10 for atom    13.
 Variable       Old X    -DE/DX   Delta X   Delta X   Delta X     New X
                                 (Linear)    (Quad)   (Total)
    R1        2.70959  -0.00142  -0.00127  -0.00382  -0.00509   2.70450
    R2        2.60201   0.00032   0.00050   0.00085   0.00135   2.60336
    R3        2.04689  -0.00011  -0.00007  -0.00012  -0.00019   2.04670
    R4        2.57982  -0.00006   0.00001   0.00013   0.00015   2.57997
    R5        2.04738  -0.00014  -0.00001  -0.00027  -0.00028   2.04710
    R6        3.39872   0.00001   0.00023   0.00016   0.00039   3.39911
    R7        2.03896  -0.00038   0.00001  -0.00102  -0.00101   2.03795
    R8        3.44691   0.00010   0.00051   0.00065   0.00116   3.44807
    R9        2.73067  -0.00120  -0.00156  -0.00312  -0.00468   2.72598
   R10        3.44679   0.00015   0.00049   0.00089   0.00138   3.44817
   R11        2.60216   0.00016   0.00056   0.00046   0.00102   2.60318
   R12        3.39881  -0.00005   0.00027  -0.00009   0.00018   3.39899
   R13        2.57981  -0.00005   0.00001   0.00017   0.00018   2.57999
   R14        2.03893  -0.00036  -0.00001  -0.00095  -0.00095   2.03798
   R15        2.70946  -0.00131  -0.00132  -0.00346  -0.00478   2.70468
   R16        2.04742  -0.00017   0.00000  -0.00036  -0.00036   2.04706
   R17        2.04697  -0.00017  -0.00004  -0.00033  -0.00037   2.04660
    A1        1.99950   0.00008   0.00088  -0.00015   0.00073   2.00023
    A2        2.14247   0.00017   0.00048   0.00125   0.00173   2.14419
    A3        2.14122  -0.00025  -0.00136  -0.00110  -0.00245   2.13876
    A4        1.98933   0.00005   0.00077  -0.00044   0.00033   1.98965
    A5        2.14656   0.00012   0.00039   0.00094   0.00133   2.14789
    A6        2.14730  -0.00017  -0.00116  -0.00050  -0.00166   2.14564
    A7        1.94685   0.00025  -0.00115   0.00172   0.00056   1.94741
    A8        2.25786   0.00002   0.00106   0.00010   0.00115   2.25901
    A9        2.07848  -0.00027   0.00009  -0.00181  -0.00172   2.07676
   A10        1.57039  -0.00044   0.00095  -0.00222  -0.00127   1.56912
   A11        1.91871   0.00006  -0.00145   0.00110  -0.00035   1.91837
   A12        2.24111   0.00009   0.00076   0.00004   0.00080   2.24191
   A13        2.12336  -0.00015   0.00069  -0.00114  -0.00046   2.12291
   A14        2.12319  -0.00006   0.00062  -0.00065  -0.00003   2.12316
   A15        2.24120   0.00003   0.00080  -0.00023   0.00057   2.24177
   A16        1.91880   0.00003  -0.00142   0.00088  -0.00055   1.91825
   A17        1.57027  -0.00038   0.00091  -0.00188  -0.00097   1.56930
   A18        1.94699   0.00017  -0.00110   0.00133   0.00022   1.94721
   A19        2.07849  -0.00026   0.00011  -0.00186  -0.00175   2.07674
   A20        2.25770   0.00009   0.00100   0.00053   0.00153   2.25923
   A21        1.98923   0.00009   0.00074  -0.00019   0.00056   1.98979
   A22        2.14741  -0.00021  -0.00112  -0.00081  -0.00194   2.14548
   A23        2.14654   0.00012   0.00038   0.00100   0.00138   2.14792
   A24        1.99950   0.00009   0.00087  -0.00014   0.00073   2.00023
   A25        2.14134  -0.00030  -0.00130  -0.00145  -0.00275   2.13860
   A26        2.14235   0.00021   0.00043   0.00159   0.00201   2.14436
    D1        0.00000   0.00000   0.00000   0.00000   0.00000   0.00000
    D2        3.14159   0.00000   0.00000   0.00000   0.00000   3.14159
    D3        3.14159   0.00000   0.00000   0.00000   0.00000   3.14159
    D4        0.00000   0.00000   0.00000   0.00000   0.00000   0.00000
    D5        0.00000   0.00000   0.00000   0.00000   0.00000   0.00000
    D6        3.14159   0.00000   0.00000   0.00000   0.00000   3.14159
    D7        3.14159   0.00000   0.00000   0.00000   0.00000   3.14159
    D8        0.00000   0.00000   0.00000   0.00000   0.00000   0.00000
    D9        0.00000   0.00000   0.00000   0.00000   0.00000   0.00000
   D10        3.14159   0.00000   0.00000   0.00000   0.00000   3.14159
   D11        3.14159   0.00000   0.00000   0.00000   0.00000   3.14159
   D12        0.00000   0.00000   0.00000   0.00000   0.00000   0.00000
   D13        0.00000   0.00000   0.00000   0.00000   0.00000   0.00000
   D14        3.14159   0.00000   0.00000   0.00000   0.00000   3.14159
   D15        0.00000   0.00000   0.00000   0.00000   0.00000   0.00000
   D16        3.14159   0.00000   0.00000   0.00000   0.00000   3.14159
   D17        3.14159   0.00000   0.00000   0.00000   0.00000   3.14159
   D18        0.00000   0.00000   0.00000   0.00000   0.00000   0.00000
   D19        0.00000   0.00000   0.00000   0.00000   0.00000   0.00000
   D20        3.14159   0.00000   0.00000   0.00000   0.00000   3.14159
   D21        3.14159   0.00000   0.00000   0.00000   0.00000   3.14159
   D22        0.00000   0.00000   0.00000   0.00000   0.00000   0.00000
   D23        3.14159   0.00000   0.00000   0.00000   0.00000   3.14159
   D24        0.00000   0.00000   0.00000   0.00000   0.00000   0.00000
   D25        0.00000   0.00000   0.00000   0.00000   0.00000   0.00000
   D26        3.14159   0.00000   0.00000   0.00000   0.00000   3.14159
   D27        0.00000   0.00000   0.00000   0.00000   0.00000   0.00000
   D28        3.14159   0.00000   0.00000   0.00000   0.00000   3.14159
   D29        0.00000   0.00000   0.00000   0.00000   0.00000   0.00000
   D30        3.14159   0.00000   0.00000   0.00000   0.00000   3.14159
   D31        3.14159   0.00000   0.00000   0.00000   0.00000   3.14159
   D32        0.00000   0.00000   0.00000   0.00000   0.00000   0.00000
   D33        0.00000   0.00000   0.00000   0.00000   0.00000   0.00000
   D34        3.14159   0.00000   0.00000   0.00000   0.00000   3.14159
   D35        3.14159   0.00000   0.00000   0.00000   0.00000   3.14159
   D36        0.00000   0.00000   0.00000   0.00000   0.00000   0.00000
         Item               Value     Threshold  Converged?
 Maximum Force            0.001419     0.000450     NO 
 RMS     Force            0.000292     0.000300     YES
 Maximum Displacement     0.005749     0.001800     NO 
 RMS     Displacement     0.001701     0.001200     NO 
 Predicted change in Energy=-1.328776D-05
 GradGradGradGradGradGradGradGradGradGradGradGradGradGradGradGradGradGrad

                          Input orientation:                          
 ---------------------------------------------------------------------
 Center     Atomic      Atomic             Coordinates (Angstroms)
 Number     Number       Type             X           Y           Z
 ---------------------------------------------------------------------
      1          6           0       -0.139064    0.000000    0.140510
      2          6           0        0.001432    0.000000    1.564758
      3          6           0        1.297157    0.000000    1.994908
      4         16           0        2.452003    0.000000    0.615861
      5          6           0        1.051130    0.000000   -0.553266
      6          6           0        1.257218    0.000000   -1.980997
      7         16           0        2.931404    0.000000   -2.706676
      8          6           0        2.213602    0.000000   -4.355909
      9          6           0        0.849126    0.000000   -4.309376
     10          6           0        0.311737    0.000000   -2.982840
     11          1           0       -1.102193    0.000000   -0.354884
     12          1           0       -0.844005    0.000000    2.242058
     13          1           0        1.684810    0.000000    3.001263
     14          1           0        2.869989    0.000000   -5.211607
     15          1           0        0.229654    0.000000   -5.198025
     16          1           0       -0.752060    0.000000   -2.779726
 ---------------------------------------------------------------------
                    Distance matrix (angstroms):
                    1          2          3          4          5
     1  C    0.000000
     2  C    1.431161   0.000000
     3  C    2.345533   1.365259   0.000000
     4  S    2.634310   2.627871   1.798733   0.000000
     5  C    1.377639   2.363873   2.560024   1.824638   0.000000
     6  C    2.539763   3.761565   3.976105   2.858528   1.442527
     7  S    4.187391   5.179757   4.977515   3.356945   2.858776
     8  C    5.074724   6.320443   6.416600   4.977483   3.976359
     9  C    4.558290   5.934984   6.320185   5.179496   3.761538
    10  C    3.155715   4.558172   5.074350   4.187050   2.539592
    11  H    1.083066   2.214275   3.358334   3.684380   2.162442
    12  H    2.216629   1.083281   2.155379   3.675348   3.377184
    13  H    3.392702   2.212986   1.078437   2.505739   3.610572
    14  H    6.139997   7.358515   7.376155   5.842440   5.000838
    15  H    5.351253   6.766633   7.271716   6.224156   4.716843
    16  H    2.983881   4.409342   5.195808   4.668623   2.865069
                    6          7          8          9         10
     6  C    0.000000
     7  S    1.824694   0.000000
     8  C    2.560250   1.798668   0.000000
     9  C    2.363872   2.627647   1.365270   0.000000
    10  C    1.377543   2.634183   2.345722   1.431253   0.000000
    11  H    2.865495   4.669136   5.196412   4.409722   2.984183
    12  H    4.716919   6.224442   7.272010   6.766682   5.351195
    13  H    5.000575   5.842480   7.376152   7.358249   6.139610
    14  H    3.610799   2.505683   1.078453   2.213122   3.392942
    15  H    3.377153   3.675088   2.155275   1.083255   2.216706
[...]
           D33         -0.06216   0.17311   0.39308   0.54683   0.56592
           D34       -178.65166-178.14607-177.80917-177.72776-178.01511
           D35        179.15873 179.22449 179.41632 179.63683 179.82186
           D36          0.56922   0.90532   1.21407   1.36224   1.24084
                          36        37
     Eigenvalues --  ********************
           R1           1.43185   1.43163
           R2           1.37738   1.37753
           R3           1.08305   1.08304
           R4           1.36521   1.36524
           R5           1.08322   1.08323
           R6           1.79850   1.79855
           R7           1.07848   1.07844
           R8           1.82486   1.82469
           R9           1.44283   1.44299
           R10          1.82489   1.82468
           R11          1.37738   1.37754
           R12          1.79847   1.79859
           R13          1.36522   1.36523
           R14          1.07848   1.07844
           R15          1.43183   1.43163
           R16          1.08322   1.08324
           R17          1.08306   1.08302
           A1         114.58924 114.60299
           A2         122.94595 122.88361
           A3         122.45906 122.51340
           A4         113.99092 114.00041
           A5         123.08432 123.09166
           A6         122.92346 122.90793
           A7         111.58862 111.56824
           A8         129.41698 129.42794
           A9         118.99434 119.00382
           A10         89.90732  89.92655
           A11        109.92284 109.90180
           A12        128.46222 128.48416
           A13        121.61495 121.61403
           A14        121.61640 121.61335
           A15        128.45980 128.48470
           A16        109.92379 109.90194
           A17         89.90225  89.92826
           A18        111.59689 111.56367
           A19        118.98582 119.01098
           A20        129.41723 129.42535
           A21        113.98405 114.00478
           A22        122.92941 122.90354
           A23        123.08523 123.09168
           A24        114.59195 114.60134
           A25        122.46061 122.51401
           A26        122.94159 122.88464
           D1           0.36848   0.00291
           D2         179.96443-179.99892
           D3        -178.77732 180.00601
           D4           0.81863   0.00418
           D5          -0.23066  -0.00229
           D6         179.76041-179.99805
           D7         178.91979-180.00538
           D8          -1.08914  -0.00113
           D9          -0.32122  -0.00205
           D10        179.58375 180.00824
           D11       -179.91791 179.99977
           D12         -0.01295   0.01007
           D13          0.15918   0.00064
           D14       -179.75688-180.00845
           D15          0.04274   0.00094
           D16       -179.94905-180.00296
           D17        170.00974-180.00473
           D18         -9.97979  -0.00394
           D19        -10.00012  -0.00005
           D20        170.01035-179.99925
           D21       -179.95137-179.99855
           D22          0.03991   0.00079
           D23        179.76319 179.99758
           D24         -1.09368  -0.01354
           D25         -0.22732  -0.00170
           D26        178.91581-180.01282
           D27          0.16089   0.00032
           D28       -179.76252-180.00215
           D29         -0.32139  -0.00134
           D30       -179.91813 180.00354
           D31        179.59189 180.00145
           D32         -0.00486   0.00633
           D33          0.36630   0.00204
           D34       -178.77220 180.01320
           D35        179.96234-180.00285
           D36          0.82383   0.00830
                          Input orientation:                          
 ---------------------------------------------------------------------
 Center     Atomic      Atomic             Coordinates (Angstroms)
 Number     Number       Type             X           Y           Z
 ---------------------------------------------------------------------
      1          6           0        1.477798   -0.006334    0.374629
      2          6           0        0.939369   -0.011950    1.701139
      3          6           0       -0.425111   -0.012980    1.746600
      4         16           0       -1.141606   -0.006800    0.096946
      5          6           0        0.532975   -0.002869   -0.627811
      6          6           0        0.739058    0.002923   -2.056003
      7         16           0       -0.662317    0.006669   -3.224582
      8          6           0        0.491288    0.012823   -4.604464
      9          6           0        1.787229    0.011921   -4.175063
     10          6           0        1.928734    0.006413   -2.750457
     11          1           0        2.541683   -0.004960    0.171848
     12          1           0        1.557834   -0.015133    2.590448
     13          1           0       -1.081916   -0.016674    2.601953
     14          1           0        0.103175    0.016518   -5.610637
     15          1           0        2.631860    0.015172   -4.853288
     16          1           0        2.891889    0.005261   -2.255206
 ---------------------------------------------------------------------
                    Distance matrix (angstroms):
                    1          2          3          4          5
     1  C    0.000000
     2  C    1.431631   0.000000
     3  C    2.345935   1.365237   0.000000
     4  S    2.634082   2.627531   1.798545   0.000000
     5  C    1.377530   2.364159   2.560442   1.824695   0.000000
     6  C    2.540432   3.762507   3.976850   2.858703   1.442995
     7  S    4.187432   5.179621   4.976877   3.355957   2.858677
     8  C    5.075917   6.321552   6.416890   4.976945   3.976902
     9  C    4.560239   5.937103   6.321484   5.179622   3.762495
    10  C    3.157479   4.560252   5.075873   4.187466   2.540444
    11  H    1.083040   2.214993   3.358836   3.684052   2.162029
    12  H    2.217281   1.083226   2.155030   3.674861   3.377526
    13  H    3.393113   2.212934   1.078441   2.505738   3.611017
    14  H    6.141133   7.359490   7.376238   5.841791   5.001365
    15  H    5.353825   6.769474   7.273540   6.224495   4.718082
    16  H    2.985937   4.411950   5.197814   4.669245   2.865825
                    6          7          8          9         10
     6  C    0.000000
     7  S    1.824677   0.000000
     8  C    2.560497   1.798588   0.000000
     9  C    2.364140   2.627493   1.365228   0.000000
    10  C    1.377537   2.634073   2.345983   1.431627   0.000000
    11  H    2.865805   4.669207   5.197845   4.411929   2.985917
    12  H    4.718074   6.224478   7.273586   6.769453   5.353812
    13  H    5.001288   5.841671   7.376198   7.359399   6.141079
    14  H    3.611087   2.505859   1.078438   2.212900   3.393139
    15  H    3.377522   3.674828   2.154986   1.083236   2.217286
    16  H    2.162029   3.684030   3.358862   2.214988   1.083025
                   11         12         13         14         15
    11  H    0.000000
    12  H    2.611071   0.000000
    13  H    4.363029   2.639775   0.000000
    14  H    6.275660   8.329155   8.297721   0.000000
    15  H    5.025985   7.520881   8.329091   2.639664   0.000000
    16  H    2.452211   5.025980   6.275636   4.363022   2.611081
                   16
    16  H    0.000000
 Stoichiometry    C8H6S2
 Framework group  C1[X(C8H6S2)]
 Deg. of freedom    42
 Full point group                 C1      NOp   1
 Largest Abelian subgroup         C1      NOp   1
 Largest concise Abelian subgroup C1      NOp   1
                         Standard orientation:                         
 ---------------------------------------------------------------------
 Center     Atomic      Atomic             Coordinates (Angstroms)
 Number     Number       Type             X           Y           Z
 ---------------------------------------------------------------------
      1          6           0        1.578738   -1.431778    0.000019
      2          6           0        2.968557   -1.088312    0.000033
      3          6           0        3.208421    0.255688    0.000045
      4         16           0        1.677989    1.200433   -0.000020
      5          6           0        0.721500   -0.353477   -0.000043
      6          6           0       -0.721495   -0.353482   -0.000034
      7         16           0       -1.677968    1.200418    0.000003
      8          6           0       -3.208469    0.255704    0.000040
      9          6           0       -2.968546   -1.088277    0.000031
     10          6           0       -1.578741   -1.431786   -0.000035
     11          1           0        1.226094   -2.455798    0.000104
     12          1           0        3.760431   -1.827444    0.000062
     13          1           0        4.148815    0.783604   -0.000063
     14          1           0       -4.148906    0.783534    0.000105
     15          1           0       -3.760450   -1.827391   -0.000007
     16          1           0       -1.226116   -2.455797   -0.000259
 ---------------------------------------------------------------------
 Rotational constants (GHZ):      2.6026577      0.6503095      0.5203044

 **********************************************************************

            Population analysis using the SCF density.

 **********************************************************************

 Orbital symmetries:
       Occupied  (A) (A) (A) (A) (A) (A) (A) (A) (A) (A) (A) (A)
                 (A) (A) (A) (A) (A) (A) (A) (A) (A) (A) (A) (A)
                 (A) (A) (A) (A) (A) (A) (A) (A) (A) (A) (A) (A)
                 (A) (A) (A) (A) (A) (A) (A)
       Virtual   (A) (A) (A) (A) (A) (A) (A) (A) (A) (A) (A) (A)
                 (A) (A) (A) (A) (A) (A) (A) (A) (A) (A) (A) (A)
                 (A) (A) (A) (A) (A) (A) (A) (A) (A) (A) (A) (A)
                 (A) (A) (A) (A) (A) (A) (A) (A) (A) (A) (A) (A)
                 (A) (A) (A) (A) (A) (A) (A) (A) (A) (A) (A) (A)
                 (A) (A) (A) (A) (A) (A) (A)
 The electronic state is 1-A.
 Alpha  occ. eigenvalues --  -88.89451 -88.89449 -10.23885 -10.23857 -10.22165
 Alpha  occ. eigenvalues --  -10.22164 -10.19825 -10.19824 -10.19759 -10.19758
 Alpha  occ. eigenvalues --   -7.97295  -7.97290  -5.93641  -5.93639  -5.93241
 Alpha  occ. eigenvalues --   -5.93238  -5.92709  -5.92707  -0.89267  -0.87067
 Alpha  occ. eigenvalues --   -0.77094  -0.74547  -0.73272  -0.70524  -0.60800
 Alpha  occ. eigenvalues --   -0.57497  -0.55313  -0.52968  -0.52530  -0.47308
 Alpha  occ. eigenvalues --   -0.42474  -0.41833  -0.40533  -0.39809  -0.39684
 Alpha  occ. eigenvalues --   -0.36638  -0.36304  -0.35013  -0.33295  -0.28046
 Alpha  occ. eigenvalues --   -0.26027  -0.25220  -0.20556
 Alpha virt. eigenvalues --   -0.05403  -0.00016   0.01798   0.05541   0.05811
 Alpha virt. eigenvalues --    0.06280   0.10217   0.10917   0.11016   0.11437
 Alpha virt. eigenvalues --    0.14091   0.16816   0.16881   0.21351   0.23446
 Alpha virt. eigenvalues --    0.27855   0.29376   0.29666   0.32267   0.35033
 Alpha virt. eigenvalues --    0.35478   0.35601   0.36220   0.39595   0.40730
 Alpha virt. eigenvalues --    0.43933   0.44233   0.49071   0.51162   0.52162
 Alpha virt. eigenvalues --    0.53711   0.56671   0.57237   0.58305   0.60261
 Alpha virt. eigenvalues --    0.60518   0.62766   0.64258   0.64651   0.64748
 Alpha virt. eigenvalues --    0.67740   0.69011   0.72826   0.73216   0.81360
 Alpha virt. eigenvalues --    0.83113   0.86153   0.86525   0.87868   0.88363
 Alpha virt. eigenvalues --    0.90339   0.92541   0.93281   0.94000   0.96846
 Alpha virt. eigenvalues --    1.02426   1.08123   1.10815   1.15936   1.16890
 Alpha virt. eigenvalues --    1.20065   1.22418   1.32280   1.34942   1.42633
 Alpha virt. eigenvalues --    1.47271   1.55646
          Condensed to atoms (all electrons):
               1          2          3          4          5          6
     1  C    4.934827   0.480702  -0.063024  -0.085091   0.481732  -0.054245
     2  C    0.480702   4.902030   0.476956  -0.093964  -0.014149   0.007871
     3  C   -0.063024   0.476956   5.498289   0.267309  -0.062806   0.006030
     4  S   -0.085091  -0.093964   0.267309  15.247726   0.264410  -0.040372
     5  C    0.481732  -0.014149  -0.062806   0.264410   5.480459   0.317631
     6  C   -0.054245   0.007871   0.006030  -0.040372   0.317631   5.480507
     7  S    0.002096  -0.000037  -0.000376   0.014827  -0.040374   0.264409
     8  C   -0.000035   0.000002  -0.000002  -0.000376   0.006029  -0.062806
     9  C    0.000418  -0.000014   0.000002  -0.000037   0.007872  -0.014128
    10  C   -0.009930   0.000418  -0.000035   0.002096  -0.054242   0.481707
    11  H    0.362663  -0.034571   0.006539   0.004942  -0.044132  -0.007912
    12  H   -0.026486   0.356051  -0.039086   0.004865   0.004700  -0.000215
    13  H    0.003070  -0.015028   0.364860  -0.023311   0.001971  -0.000075
    14  H    0.000000   0.000000   0.000000   0.000005  -0.000075   0.001970
    15  H    0.000001   0.000000   0.000000   0.000002  -0.000216   0.004700
    16  H    0.001874   0.000100   0.000000  -0.000027  -0.007913  -0.044134
               7          8          9         10         11         12
     1  C    0.002096  -0.000035   0.000418  -0.009930   0.362663  -0.026486
     2  C   -0.000037   0.000002  -0.000014   0.000418  -0.034571   0.356051
     3  C   -0.000376  -0.000002   0.000002  -0.000035   0.006539  -0.039086
     4  S    0.014827  -0.000376  -0.000037   0.002096   0.004942   0.004865
     5  C   -0.040374   0.006029   0.007872  -0.054242  -0.044132   0.004700
     6  C    0.264409  -0.062806  -0.014128   0.481707  -0.007912  -0.000215
     7  S   15.247746   0.267312  -0.093976  -0.085090  -0.000027   0.000002
     8  C    0.267312   5.498251   0.476959  -0.063021   0.000000   0.000000
     9  C   -0.093976   0.476959   4.902057   0.480697   0.000100   0.000000
    10  C   -0.085090  -0.063021   0.480697   4.934811   0.001874   0.000001
    11  H   -0.000027   0.000000   0.000100   0.001874   0.569796  -0.001887
    12  H    0.000002   0.000000   0.000000   0.000001  -0.001887   0.558390
    13  H    0.000005   0.000000   0.000000   0.000000  -0.000116  -0.001565
    14  H   -0.023300   0.364868  -0.015034   0.003070   0.000000   0.000000
    15  H    0.004866  -0.039090   0.356047  -0.026486  -0.000001   0.000000
    16  H    0.004942   0.006539  -0.034571   0.362666   0.001800  -0.000001
              13         14         15         16
     1  C    0.003070   0.000000   0.000001   0.001874
     2  C   -0.015028   0.000000   0.000000   0.000100
     3  C    0.364860   0.000000   0.000000   0.000000
     4  S   -0.023311   0.000005   0.000002  -0.000027
     5  C    0.001971  -0.000075  -0.000216  -0.007913
     6  C   -0.000075   0.001970   0.004700  -0.044134
     7  S    0.000005  -0.023300   0.004866   0.004942
     8  C    0.000000   0.364868  -0.039090   0.006539
     9  C    0.000000  -0.015034   0.356047  -0.034571
    10  C    0.000000   0.003070  -0.026486   0.362666
    11  H   -0.000116   0.000000  -0.000001   0.001800
    12  H   -0.001565   0.000000   0.000000  -0.000001
    13  H    0.502839   0.000000   0.000000   0.000000
    14  H    0.000000   0.502834  -0.001566  -0.000116
    15  H    0.000000  -0.001566   0.558402  -0.001887
    16  H    0.000000  -0.000116  -0.001887   0.569797
 Mulliken charges:
               1
     1  C   -0.028572
     2  C   -0.066365
     3  C   -0.454657
     4  S    0.436995
     5  C   -0.340897
     6  C   -0.340937
     7  S    0.436975
     8  C   -0.454631
     9  C   -0.066390
    10  C   -0.028535
    11  H    0.140932
    12  H    0.145231
    13  H    0.167350
    14  H    0.167344
    15  H    0.145226
    16  H    0.140930
 Sum of Mulliken charges =   0.00000
 Mulliken charges with hydrogens summed into heavy atoms:
               1
     1  C    0.112361
     2  C    0.078865
     3  C   -0.287307
     4  S    0.436995
     5  C   -0.340897
     6  C   -0.340937
     7  S    0.436975
     8  C   -0.287287
     9  C    0.078836
    10  C    0.112396
 Electronic spatial extent (au):  <R**2>=           2038.0355
 Charge=              0.0000 electrons
 Dipole moment (field-independent basis, Debye):
    X=              0.0001    Y=             -1.8061    Z=             -0.0001  Tot=              1.8061
 Quadrupole moment (field-independent basis, Debye-Ang):
   XX=            -57.8428   YY=            -67.4607   ZZ=            -77.7914
   XY=              0.0000   XZ=             -0.0003   YZ=              0.0003
 Traceless Quadrupole moment (field-independent basis, Debye-Ang):
   XX=              9.8555   YY=              0.2376   ZZ=            -10.0931
   XY=              0.0000   XZ=             -0.0003   YZ=              0.0003
 Octapole moment (field-independent basis, Debye-Ang**2):
  XXX=             -0.0033  YYY=            -12.4865  ZZZ=             -0.0003  XYY=              0.0015
  XXY=              2.6025  XXZ=             -0.0005  XZZ=              0.0003  YZZ=              2.5326
  YYZ=             -0.0008  XYZ=             -0.0018
 Hexadecapole moment (field-independent basis, Debye-Ang**3):
 XXXX=          -1828.3608 YYYY=           -556.4474 ZZZZ=            -88.9136 XXXY=             -0.0030
 XXXZ=             -0.0112 YYYX=             -0.0011 YYYZ=              0.0021 ZZZX=             -0.0003
 ZZZY=              0.0002 XXYY=           -404.5611 XXZZ=           -412.4428 YYZZ=           -122.3285
 XXYZ=              0.0003 YYXZ=              0.0028 ZZXY=              0.0003
 N-N= 6.230247887523D+02 E-N=-3.853885408382D+03  KE= 1.101411998149D+03
 1\1\GINC-G4INODE4\Scan\RB3LYP\6-31G\C8H6S2\CMM21\29-Oct-2021\0\\# B3LY
 P/6-31G Opt=ModRedundant\\bithiophene_test1\\0,1\C,1.477797628,-0.0063
 344345,0.3746291123\C,0.9393685282,-0.0119495801,1.7011391711\C,-0.425
 1108198,-0.0129800556,1.7466002552\S,-1.1416064126,-0.0068000691,0.096
 9456669\C,0.5329749916,-0.0028690704,-0.6278114455\C,0.7390580205,0.00
 29229417,-2.0560028572\S,-0.6623173566,0.0066690549,-3.2245821998\C,0.
 4912878888,0.0128232905,-4.6044641724\C,1.7872287335,0.0119210428,-4.1
 750631604\C,1.9287343125,0.0064133986,-2.7504574671\H,2.5416832176,-0.
 0049603301,0.1718476286\H,1.5578339531,-0.0151332639,2.590447757\H,-1.
 0819157639,-0.0166737584,2.6019532812\H,0.1031753106,0.0165178927,-5.6
 106365053\H,2.631859738,0.0151720795,-4.8532879914\H,2.8918890306,0.00
 52608616,-2.2552060732\\Version=AM64L-G09RevD.01\State=1-A\HF=-1104.67
 39478,-1104.674094,-1104.6743073,-1104.6744186,-1104.6742826,-1104.673
 8323,-1104.6730967,-1104.6722296,-1104.6715005,-1104.6712242,-1104.671
 5559,-1104.6723624,-1104.6734011,-1104.674448,-1104.6753282,-1104.6759
 397,-1104.6762797,-1104.6764214,-1104.6764549,-1104.6764212,-1104.6762
 797,-1104.6759397,-1104.6753282,-1104.6744481,-1104.673401,-1104.67236
 25,-1104.671556,-1104.6712243,-1104.6715006,-1104.6722296,-1104.673096
 8,-1104.6738322,-1104.6742827,-1104.6744187,-1104.6743073,-1104.674093
 9,-1104.6739907\RMSD=3.290e-09,6.481e-09,2.629e-09,5.296e-09,6.069e-09
 ,2.852e-09,4.688e-09,3.650e-09,4.644e-09,9.296e-09,9.779e-09,4.405e-09
 ,4.751e-09,2.033e-09,2.317e-09,4.053e-09,9.720e-09,5.916e-09,8.220e-09
 ,6.604e-09,4.908e-09,8.679e-09,6.779e-09,3.837e-09,8.240e-09,5.172e-09
 ,8.074e-09,8.094e-09,6.385e-09,6.926e-09,3.342e-09,2.753e-09,3.452e-09
 ,8.541e-09,4.486e-09,7.646e-09,6.353e-09\PG=C01 [X(C8H6S2)]\\@


 MAN IS A SINGULAR CREATURE.  HE HAS A SET OF GIFTS
 WHICH MAKE HIM UNIQUE AMONG THE ANIMALS: SO THAT, 
 UNLIKE THEM, HE IS NOT A FIGURE IN THE LANDSCAPE --
 HE IS A SHAPER OF THE LANDSCAPE.

                       -- JACOB BRONOWSKI
 Job cpu time:       0 days  2 hours 29 minutes 31.4 seconds.
 File lengths (MBytes):  RWF=     11 Int=      0 D2E=      0 Chk=      5 Scr=      1
 Normal termination of Gaussian 09 at Fri Oct 29 19:36:02 2021.
