 Entering Gaussian System, Link 0=g09
 Initial command:
 /aplic/Gaussian/g09d01_prebuilt_iqtc01/g09/l1.exe "/scratch/107868.1.iqtc01.q/Gau-7189.inp" -scrdir="/scratch/107868.1.iqtc01.q/"
 Entering Link 1 = /aplic/Gaussian/g09d01_prebuilt_iqtc01/g09/l1.exe PID=      7191.
  
 Copyright (c) 1988,1990,1992,1993,1995,1998,2003,2009,2013,
            Gaussian, Inc.  All Rights Reserved.
  
 This is part of the Gaussian(R) 09 program.  It is based on
 the Gaussian(R) 03 system (copyright 2003, Gaussian, Inc.),
 the Gaussian(R) 98 system (copyright 1998, Gaussian, Inc.),
 the Gaussian(R) 94 system (copyright 1995, Gaussian, Inc.),
 the Gaussian 92(TM) system (copyright 1992, Gaussian, Inc.),
 the Gaussian 90(TM) system (copyright 1990, Gaussian, Inc.),
 the Gaussian 88(TM) system (copyright 1988, Gaussian, Inc.),
 the Gaussian 86(TM) system (copyright 1986, Carnegie Mellon
 University), and the Gaussian 82(TM) system (copyright 1983,
 Carnegie Mellon University). Gaussian is a federally registered
 trademark of Gaussian, Inc.
  
 This software contains proprietary and confidential information,
 including trade secrets, belonging to Gaussian, Inc.
  
 This software is provided under written license and may be
 used, copied, transmitted, or stored only in accord with that
 written license.
  
 The following legend is applicable only to US Government
 contracts under FAR:
  
                    RESTRICTED RIGHTS LEGEND
  
 Use, reproduction and disclosure by the US Government is
 subject to restrictions as set forth in subparagraphs (a)
 and (c) of the Commercial Computer Software - Restricted
 Rights clause in FAR 52.227-19.
  
 Gaussian, Inc.
 340 Quinnipiac St., Bldg. 40, Wallingford CT 06492
  
  
 ---------------------------------------------------------------
 Warning -- This program may not be used in any manner that
 competes with the business of Gaussian, Inc. or will provide
 assistance to any competitor of Gaussian, Inc.  The licensee
 of this program is prohibited from giving any competitor of
 Gaussian, Inc. access to this program.  By using this program,
 the user acknowledges that Gaussian, Inc. is engaged in the
 business of creating and licensing software in the field of
 computational chemistry and represents and warrants to the
 licensee that it is not a competitor of Gaussian, Inc. and that
 it will not use this program in any manner prohibited above.
 ---------------------------------------------------------------
  

 Cite this work as:
 Gaussian 09, Revision D.01,
 M. J. Frisch, G. W. Trucks, H. B. Schlegel, G. E. Scuseria, 
 M. A. Robb, J. R. Cheeseman, G. Scalmani, V. Barone, B. Mennucci, 
 G. A. Petersson, H. Nakatsuji, M. Caricato, X. Li, H. P. Hratchian, 
 A. F. Izmaylov, J. Bloino, G. Zheng, J. L. Sonnenberg, M. Hada, 
 M. Ehara, K. Toyota, R. Fukuda, J. Hasegawa, M. Ishida, T. Nakajima, 
 Y. Honda, O. Kitao, H. Nakai, T. Vreven, J. A. Montgomery, Jr., 
 J. E. Peralta, F. Ogliaro, M. Bearpark, J. J. Heyd, E. Brothers, 
 K. N. Kudin, V. N. Staroverov, T. Keith, R. Kobayashi, J. Normand, 
 K. Raghavachari, A. Rendell, J. C. Burant, S. S. Iyengar, J. Tomasi, 
 M. Cossi, N. Rega, J. M. Millam, M. Klene, J. E. Knox, J. B. Cross, 
 V. Bakken, C. Adamo, J. Jaramillo, R. Gomperts, R. E. Stratmann, 
 O. Yazyev, A. J. Austin, R. Cammi, C. Pomelli, J. W. Ochterski, 
 R. L. Martin, K. Morokuma, V. G. Zakrzewski, G. A. Voth, 
 P. Salvador, J. J. Dannenberg, S. Dapprich, A. D. Daniels, 
 O. Farkas, J. B. Foresman, J. V. Ortiz, J. Cioslowski, 
 and D. J. Fox, Gaussian, Inc., Wallingford CT, 2013.
 
 ******************************************
 Gaussian 09:  AM64L-G09RevD.01 24-Apr-2013
                29-Oct-2021 
 ******************************************
 %mem=3GB
 %NProcShared=4
 Will use up to    4 processors via shared memory.
 ---------------------------
 # HF/6-31G Opt=ModRedundant
 ---------------------------
 1/18=120,19=15,38=1/1,3;
 2/9=110,12=2,17=6,18=5,40=1/2;
 3/5=1,6=6,11=9,16=1,25=1,30=1,71=1/1,2,3;
 4//1;
 5/5=2,38=5/2;
 6/7=2,8=2,9=2,10=2,28=1/1;
 7//1,2,3,16;
 1/18=20,19=15/3(2);
 2/9=110/2;
 99//99;
 2/9=110/2;
 3/5=1,6=6,11=9,16=1,25=1,30=1,71=1/1,2,3;
 4/5=5,16=3,69=1/1;
 5/5=2,38=5/2;
 7//1,2,3,16;
 1/18=20,19=15/3(-5);
 2/9=110/2;
 6/7=2,8=2,9=2,10=2,19=2,28=1/1;
 99/9=1/99;
 -----------------
 bithiophene_test1
 -----------------
 Symbolic Z-matrix:
 Charge =  0 Multiplicity = 1
 C                    -0.12111   0.        0.12237 
 C                     0.01192   0.        1.55417 
 C                     1.28544   0.        1.97836 
 S                     2.43542   0.        0.61368 
 C                     1.05193   0.       -0.54874 
 C                     1.2592    0.       -1.98516 
 S                     2.91487   0.       -2.70904 
 C                     2.1976    0.       -4.34316 
 C                     0.85612   0.       -4.29631 
 C                     0.32373   0.       -2.96052 
 H                    -1.07273   0.       -0.36783 
 H                    -0.82854   0.        2.21739 
 H                     1.65417   0.        2.9789 
 H                     2.83415   0.       -5.19864 
 H                     0.23744   0.       -5.17007 
 H                    -0.72765   0.       -2.75934 
 
 The following ModRedundant input section has been read:
 D       4       5       6       7 S  36 10.000                                
 

 GradGradGradGradGradGradGradGradGradGradGradGradGradGradGradGradGradGrad
 Berny optimization.
 Initialization pass.
                           ----------------------------
                           !    Initial Parameters    !
                           ! (Angstroms and Degrees)  !
 --------------------------                            --------------------------
 ! Name  Definition              Value          Derivative Info.                !
 --------------------------------------------------------------------------------
 ! R1    R(1,2)                  1.438          estimate D2E/DX2                !
 ! R2    R(1,5)                  1.3514         estimate D2E/DX2                !
 ! R3    R(1,11)                 1.0705         estimate D2E/DX2                !
 ! R4    R(2,3)                  1.3423         estimate D2E/DX2                !
 ! R5    R(2,12)                 1.0706         estimate D2E/DX2                !
 ! R6    R(3,4)                  1.7846         estimate D2E/DX2                !
 ! R7    R(3,13)                 1.0663         estimate D2E/DX2                !
 ! R8    R(4,5)                  1.807          estimate D2E/DX2                !
 ! R9    R(5,6)                  1.4513         estimate D2E/DX2                !
 ! R10   R(6,7)                  1.807          estimate D2E/DX2                !
 ! R11   R(6,10)                 1.3514         estimate D2E/DX2                !
 ! R12   R(7,8)                  1.7846         estimate D2E/DX2                !
 ! R13   R(8,9)                  1.3423         estimate D2E/DX2                !
 ! R14   R(8,14)                 1.0663         estimate D2E/DX2                !
 ! R15   R(9,10)                 1.438          estimate D2E/DX2                !
 ! R16   R(9,15)                 1.0706         estimate D2E/DX2                !
 ! R17   R(10,16)                1.0705         estimate D2E/DX2                !
 ! A1    A(2,1,5)              114.4663         estimate D2E/DX2                !
 ! A2    A(2,1,11)             122.5622         estimate D2E/DX2                !
 ! A3    A(5,1,11)             122.9714         estimate D2E/DX2                !
 ! A4    A(1,2,3)              113.7302         estimate D2E/DX2                !
 ! A5    A(1,2,12)             122.969          estimate D2E/DX2                !
 ! A6    A(3,2,12)             123.3008         estimate D2E/DX2                !
 ! A7    A(2,3,4)              111.698          estimate D2E/DX2                !
 ! A8    A(2,3,13)             128.6523         estimate D2E/DX2                !
 ! A9    A(4,3,13)             119.6497         estimate D2E/DX2                !
 ! A10   A(3,4,5)               89.9172         estimate D2E/DX2                !
 ! A11   A(1,5,4)              110.1883         estimate D2E/DX2                !
 ! A12   A(1,5,6)              127.9854         estimate D2E/DX2                !
 ! A13   A(4,5,6)              121.8263         estimate D2E/DX2                !
 ! A14   A(5,6,7)              121.8265         estimate D2E/DX2                !
 ! A15   A(5,6,10)             127.9851         estimate D2E/DX2                !
 ! A16   A(7,6,10)             110.1884         estimate D2E/DX2                !
 ! A17   A(6,7,8)               89.9173         estimate D2E/DX2                !
 ! A18   A(7,8,9)              111.698          estimate D2E/DX2                !
 ! A19   A(7,8,14)             119.6495         estimate D2E/DX2                !
 ! A20   A(9,8,14)             128.6525         estimate D2E/DX2                !
 ! A21   A(8,9,10)             113.7302         estimate D2E/DX2                !
 ! A22   A(8,9,15)             123.3003         estimate D2E/DX2                !
 ! A23   A(10,9,15)            122.9695         estimate D2E/DX2                !
 ! A24   A(6,10,9)             114.4661         estimate D2E/DX2                !
 ! A25   A(6,10,16)            122.9717         estimate D2E/DX2                !
 ! A26   A(9,10,16)            122.5622         estimate D2E/DX2                !
 ! D1    D(5,1,2,3)              0.0            estimate D2E/DX2                !
 ! D2    D(5,1,2,12)           180.0            estimate D2E/DX2                !
 ! D3    D(11,1,2,3)           180.0            estimate D2E/DX2                !
 ! D4    D(11,1,2,12)            0.0            estimate D2E/DX2                !
 ! D5    D(2,1,5,4)              0.0            estimate D2E/DX2                !
 ! D6    D(2,1,5,6)            180.0            estimate D2E/DX2                !
 ! D7    D(11,1,5,4)           180.0            estimate D2E/DX2                !
 ! D8    D(11,1,5,6)             0.0            estimate D2E/DX2                !
 ! D9    D(1,2,3,4)              0.0            estimate D2E/DX2                !
 ! D10   D(1,2,3,13)           180.0            estimate D2E/DX2                !
 ! D11   D(12,2,3,4)           180.0            estimate D2E/DX2                !
 ! D12   D(12,2,3,13)            0.0            estimate D2E/DX2                !
 ! D13   D(2,3,4,5)              0.0            estimate D2E/DX2                !
 ! D14   D(13,3,4,5)           180.0            estimate D2E/DX2                !
 ! D15   D(3,4,5,1)              0.0            estimate D2E/DX2                !
 ! D16   D(3,4,5,6)            180.0            estimate D2E/DX2                !
 ! D17   D(1,5,6,7)            180.0            estimate D2E/DX2                !
 ! D18   D(1,5,6,10)             0.0            estimate D2E/DX2                !
 ! D19   D(4,5,6,7)              0.0            Scan                            !
 ! D20   D(4,5,6,10)           180.0            estimate D2E/DX2                !
 ! D21   D(5,6,7,8)            180.0            estimate D2E/DX2                !
 ! D22   D(10,6,7,8)             0.0            estimate D2E/DX2                !
 ! D23   D(5,6,10,9)           180.0            estimate D2E/DX2                !
 ! D24   D(5,6,10,16)            0.0            estimate D2E/DX2                !
 ! D25   D(7,6,10,9)             0.0            estimate D2E/DX2                !
 ! D26   D(7,6,10,16)          180.0            estimate D2E/DX2                !
 ! D27   D(6,7,8,9)              0.0            estimate D2E/DX2                !
 ! D28   D(6,7,8,14)           180.0            estimate D2E/DX2                !
 ! D29   D(7,8,9,10)             0.0            estimate D2E/DX2                !
 ! D30   D(7,8,9,15)           180.0            estimate D2E/DX2                !
 ! D31   D(14,8,9,10)          180.0            estimate D2E/DX2                !
 ! D32   D(14,8,9,15)            0.0            estimate D2E/DX2                !
 ! D33   D(8,9,10,6)             0.0            estimate D2E/DX2                !
 ! D34   D(8,9,10,16)          180.0            estimate D2E/DX2                !
 ! D35   D(15,9,10,6)          180.0            estimate D2E/DX2                !
 ! D36   D(15,9,10,16)           0.0            estimate D2E/DX2                !
 --------------------------------------------------------------------------------
 Trust Radius=3.00D-01 FncErr=1.00D-07 GrdErr=1.00D-07
 Number of optimizations in scan=  37
 Number of steps in this run=     89 maximum allowed number of steps=    100.
 GradGradGradGradGradGradGradGradGradGradGradGradGradGradGradGradGradGrad

                          Input orientation:                          
 ---------------------------------------------------------------------
 Center     Atomic      Atomic             Coordinates (Angstroms)
 Number     Number       Type             X           Y           Z
 ---------------------------------------------------------------------
      1          6           0       -0.121109    0.000000    0.122372
      2          6           0        0.011922    0.000000    1.554172
      3          6           0        1.285436    0.000000    1.978357
      4         16           0        2.435418    0.000000    0.613675
      5          6           0        1.051929    0.000000   -0.548741
      6          6           0        1.259198    0.000000   -1.985162
      7         16           0        2.914866    0.000000   -2.709043
      8          6           0        2.197598    0.000000   -4.343157
      9          6           0        0.856115    0.000000   -4.296305
     10          6           0        0.323733    0.000000   -2.960519
     11          1           0       -1.072727    0.000000   -0.367828
     12          1           0       -0.828542    0.000000    2.217388
     13          1           0        1.654166    0.000000    2.978901
     14          1           0        2.834147    0.000000   -5.198642
     15          1           0        0.237439    0.000000   -5.170074
     16          1           0       -0.727648    0.000000   -2.759343
 ---------------------------------------------------------------------
                    Distance matrix (angstroms):
                    1          2          3          4          5
     1  C    0.000000
     2  C    1.437967   0.000000
     3  C    2.328744   1.342301   0.000000
     4  S    2.603307   2.599590   1.784605   0.000000
     5  C    1.351448   2.346030   2.537863   1.807001   0.000000
     6  C    2.519315   3.752677   3.963606   2.852621   1.451298
     7  S    4.151392   5.157721   4.962536   3.357131   2.852620
     8  C    5.031635   6.289330   6.386985   4.962534   3.963603
     9  C    4.525447   5.911070   6.289332   5.157723   3.752676
    10  C    3.114820   4.525446   5.031637   4.151394   2.519314
    11  H    1.070455   2.206932   3.326487   3.642860   2.132344
    12  H    2.211233   1.070624   2.127449   3.636665   3.344793
    13  H    3.363236   2.174125   1.066326   2.490913   3.578680
    14  H    6.086602   7.318842   7.342195   5.825977   4.979747
    15  H    5.304577   6.728027   7.224843   6.187315   4.692559
    16  H    2.944855   4.376457   5.147651   4.624093   2.837896
                    6          7          8          9         10
     6  C    0.000000
     7  S    1.806998   0.000000
     8  C    2.537860   1.784601   0.000000
     9  C    2.346030   2.599588   1.342301   0.000000
    10  C    1.351450   2.603308   2.328746   1.437969   0.000000
    11  H    2.837894   4.624088   5.147647   4.376456   2.944851
    12  H    4.692556   6.187312   7.224837   6.728021   5.304570
    13  H    4.979751   5.825982   7.342197   7.318846   6.086605
    14  H    3.578675   2.490907   1.066325   2.174126   3.363238
    15  H    3.344795   3.636659   2.127443   1.070622   2.211239
    16  H    2.132349   3.642861   3.326489   2.206934   1.070455
                   11         12         13         14         15
    11  H    0.000000
    12  H    2.596723   0.000000
    13  H    4.317006   2.596871   0.000000
    14  H    6.212924   8.271203   8.262237   0.000000
    15  H    4.977761   7.463974   8.271210   2.596865   0.000000
    16  H    2.416283   4.977754   6.212929   4.317009   2.596732
                   16
    16  H    0.000000
 Stoichiometry    C8H6S2
 Framework group  CS[SG(C8H6S2)]
 Deg. of freedom    29
 Full point group                 CS      NOp   2
 Largest Abelian subgroup         CS      NOp   2
 Largest concise Abelian subgroup C1      NOp   1
                         Standard orientation:                         
 ---------------------------------------------------------------------
 Center     Atomic      Atomic             Coordinates (Angstroms)
 Number     Number       Type             X           Y           Z
 ---------------------------------------------------------------------
      1          6           0        0.602509    2.013933    0.000000
      2          6           0       -0.303554    3.130534    0.000000
      3          6           0       -1.598111    2.775719    0.000000
      4         16           0       -1.796130    1.002134    0.000000
      5          6           0        0.000000    0.804225    0.000000
      6          6           0        0.625680   -0.505275    0.000000
      7         16           0       -0.348809   -2.026989    0.000000
      8          6           0        1.155431   -2.987230    0.000000
      9          6           0        2.244813   -2.202999    0.000000
     10          6           0        1.945366   -0.796554    0.000000
     11          1           0        1.666093    2.135025    0.000000
     12          1           0        0.026815    4.148910    0.000000
     13          1           0       -2.460564    3.402796    0.000000
     14          1           0        1.101430   -4.052187    0.000000
     15          1           0        3.244659   -2.585805    0.000000
     16          1           0        2.707799   -0.045175    0.000000
 ---------------------------------------------------------------------
 Rotational constants (GHZ):      2.6653706      0.6556222      0.5261909
 Standard basis: 6-31G (6D, 7F)
 There are    88 symmetry adapted cartesian basis functions of A'  symmetry.
 There are    22 symmetry adapted cartesian basis functions of A"  symmetry.
 There are    88 symmetry adapted basis functions of A'  symmetry.
 There are    22 symmetry adapted basis functions of A"  symmetry.
   110 basis functions,   292 primitive gaussians,   110 cartesian basis functions
    43 alpha electrons       43 beta electrons
       nuclear repulsion energy       627.7203832419 Hartrees.
 NAtoms=   16 NActive=   16 NUniq=   16 SFac= 1.00D+00 NAtFMM=   60 NAOKFM=F Big=F
 Integral buffers will be    131072 words long.
 Raffenetti 1 integral format.
 Two-electron integral symmetry is turned on.
 One-electron integrals computed using PRISM.
 NBasis=   110 RedAO= T EigKep=  1.66D-03  NBF=    88    22
 NBsUse=   110 1.00D-06 EigRej= -1.00D+00 NBFU=    88    22
 ExpMin= 1.17D-01 ExpMax= 2.19D+04 ExpMxC= 3.30D+03 IAcc=1 IRadAn=         1 AccDes= 0.00D+00
 Harris functional with IExCor=  205 and IRadAn=       1 diagonalized for initial guess.
 HarFok:  IExCor=  205 AccDes= 0.00D+00 IRadAn=         1 IDoV= 1 UseB2=F ITyADJ=14
 ICtDFT=  3500011 ScaDFX=  1.000000  1.000000  1.000000  1.000000
 FoFCou: FMM=F IPFlag=           0 FMFlag=      100000 FMFlg1=           0
         NFxFlg=           0 DoJE=T BraDBF=F KetDBF=T FulRan=T
         wScrn=  0.000000 ICntrl=     500 IOpCl=  0 I1Cent=   200000004 NGrid=           0
         NMat0=    1 NMatS0=      1 NMatT0=    0 NMatD0=    1 NMtDS0=    0 NMtDT0=    0
 Petite list used in FoFCou.
 Initial guess orbital symmetries:
       Occupied  (A') (A') (A') (A') (A') (A') (A') (A') (A') (A')
                 (A') (A') (A') (A') (A') (A') (A") (A") (A') (A')
                 (A') (A') (A') (A') (A') (A') (A') (A') (A') (A')
                 (A') (A') (A') (A") (A') (A") (A') (A') (A") (A')
                 (A") (A") (A")
       Virtual   (A") (A") (A") (A') (A") (A') (A') (A') (A') (A')
                 (A') (A') (A') (A') (A') (A') (A') (A') (A') (A')
                 (A') (A') (A") (A') (A") (A') (A') (A') (A') (A")
                 (A') (A') (A") (A") (A') (A') (A") (A') (A') (A")
                 (A") (A") (A') (A") (A') (A') (A') (A') (A') (A')
                 (A') (A') (A') (A') (A') (A') (A') (A') (A') (A')
                 (A') (A') (A') (A') (A') (A') (A')
 The electronic state of the initial guess is 1-A'.
 Keep R1 ints in memory in symmetry-blocked form, NReq=29276100.
 Requested convergence on RMS density matrix=1.00D-08 within 128 cycles.
 Requested convergence on MAX density matrix=1.00D-06.
 Requested convergence on             energy=1.00D-06.
 No special actions if energy rises.
 SCF Done:  E(RHF) =  -1101.23038638     A.U. after   14 cycles
            NFock= 14  Conv=0.55D-08     -V/T= 1.9995

 **********************************************************************

            Population analysis using the SCF density.

 **********************************************************************

 Orbital symmetries:
       Occupied  (A') (A') (A') (A') (A') (A') (A') (A') (A') (A')
                 (A') (A') (A') (A') (A') (A') (A") (A") (A') (A')
                 (A') (A') (A') (A') (A') (A') (A') (A') (A') (A')
                 (A') (A') (A') (A") (A') (A") (A') (A') (A') (A")
                 (A") (A") (A")
       Virtual   (A") (A') (A") (A') (A") (A') (A') (A') (A') (A')
                 (A") (A') (A') (A') (A') (A') (A') (A') (A') (A")
                 (A') (A') (A') (A") (A') (A') (A') (A') (A') (A')
                 (A") (A") (A") (A') (A') (A') (A") (A') (A") (A')
                 (A") (A") (A') (A") (A') (A') (A') (A') (A') (A')
                 (A') (A') (A') (A') (A') (A') (A') (A') (A') (A')
                 (A') (A') (A') (A') (A') (A') (A')
 The electronic state is 1-A'.
 Alpha  occ. eigenvalues --  -91.97243 -91.97241 -11.29783 -11.29702 -11.27765
 Alpha  occ. eigenvalues --  -11.27764 -11.25145 -11.25144 -11.25050 -11.25049
 Alpha  occ. eigenvalues --   -8.98989  -8.98988  -6.67127  -6.67126  -6.66989
 Alpha  occ. eigenvalues --   -6.66988  -6.66726  -6.66725  -1.19649  -1.16850
 Alpha  occ. eigenvalues --   -1.04752  -0.99568  -0.98120  -0.96666  -0.82082
 Alpha  occ. eigenvalues --   -0.77622  -0.75381  -0.72032  -0.71601  -0.64744
 Alpha  occ. eigenvalues --   -0.59491  -0.57325  -0.56447  -0.54916  -0.52712
 Alpha  occ. eigenvalues --   -0.50509  -0.49512  -0.47497  -0.45351  -0.38875
 Alpha  occ. eigenvalues --   -0.35804  -0.34851  -0.29077
 Alpha virt. eigenvalues --    0.07457   0.15041   0.16876   0.21387   0.21694
 Alpha virt. eigenvalues --    0.22538   0.24960   0.25874   0.27972   0.28393
 Alpha virt. eigenvalues --    0.28835   0.31665   0.32316   0.36936   0.38856
 Alpha virt. eigenvalues --    0.43387   0.44706   0.47195   0.48688   0.52304
 Alpha virt. eigenvalues --    0.53683   0.54949   0.55678   0.58620   0.60385
 Alpha virt. eigenvalues --    0.64560   0.64860   0.69005   0.72317   0.73925
 Alpha virt. eigenvalues --    0.75978   0.79122   0.79760   0.79964   0.82979
 Alpha virt. eigenvalues --    0.83831   0.86583   0.88122   0.89554   0.89561
 Alpha virt. eigenvalues --    0.92250   0.93593   0.97249   0.97255   1.06113
 Alpha virt. eigenvalues --    1.10094   1.12129   1.14428   1.14572   1.15301
 Alpha virt. eigenvalues --    1.17045   1.19956   1.20052   1.21414   1.21415
 Alpha virt. eigenvalues --    1.29870   1.33477   1.36570   1.41894   1.42915
 Alpha virt. eigenvalues --    1.45642   1.48964   1.59688   1.62187   1.69047
 Alpha virt. eigenvalues --    1.74318   1.81522
          Condensed to atoms (all electrons):
               1          2          3          4          5          6
     1  C    5.028017   0.408550  -0.051251  -0.071591   0.472840  -0.041791
     2  C    0.408550   5.093915   0.416739  -0.111752  -0.021835   0.004645
     3  C   -0.051251   0.416739   5.657174   0.266210  -0.105868   0.005828
     4  S   -0.071591  -0.111752   0.266210  15.201518   0.236443  -0.037033
     5  C    0.472840  -0.021835  -0.105868   0.236443   5.625707   0.295690
     6  C   -0.041791   0.004645   0.005828  -0.037033   0.295690   5.625712
     7  S    0.000159   0.000067  -0.000450   0.005334  -0.037034   0.236443
     8  C   -0.000042   0.000003  -0.000003  -0.000450   0.005829  -0.105868
     9  C    0.000277  -0.000015   0.000003   0.000067   0.004645  -0.021835
    10  C   -0.007957   0.000277  -0.000042   0.000159  -0.041791   0.472839
    11  H    0.376969  -0.024283   0.005098   0.002646  -0.028309  -0.002579
    12  H   -0.020842   0.374280  -0.022461   0.002314   0.003376  -0.000148
    13  H    0.001328  -0.012892   0.383017  -0.015781   0.002024  -0.000036
    14  H    0.000000   0.000000   0.000000   0.000001  -0.000036   0.002024
    15  H    0.000001   0.000000   0.000000   0.000002  -0.000148   0.003376
    16  H    0.000751   0.000081  -0.000001  -0.000052  -0.002579  -0.028308
               7          8          9         10         11         12
     1  C    0.000159  -0.000042   0.000277  -0.007957   0.376969  -0.020842
     2  C    0.000067   0.000003  -0.000015   0.000277  -0.024283   0.374280
     3  C   -0.000450  -0.000003   0.000003  -0.000042   0.005098  -0.022461
     4  S    0.005334  -0.000450   0.000067   0.000159   0.002646   0.002314
     5  C   -0.037034   0.005829   0.004645  -0.041791  -0.028309   0.003376
     6  C    0.236443  -0.105868  -0.021835   0.472839  -0.002579  -0.000148
     7  S   15.201516   0.266209  -0.111752  -0.071591  -0.000052   0.000002
     8  C    0.266209   5.657175   0.416740  -0.051252  -0.000001   0.000000
     9  C   -0.111752   0.416740   5.093913   0.408551   0.000081   0.000000
    10  C   -0.071591  -0.051252   0.408551   5.028015   0.000751   0.000001
    11  H   -0.000052  -0.000001   0.000081   0.000751   0.453204   0.000111
    12  H    0.000002   0.000000   0.000000   0.000001   0.000111   0.444187
    13  H    0.000001   0.000000   0.000000   0.000000  -0.000071   0.000662
    14  H   -0.015781   0.383017  -0.012892   0.001328   0.000000   0.000000
    15  H    0.002314  -0.022462   0.374280  -0.020842  -0.000001   0.000000
    16  H    0.002646   0.005098  -0.024282   0.376969   0.000856  -0.000001
              13         14         15         16
     1  C    0.001328   0.000000   0.000001   0.000751
     2  C   -0.012892   0.000000   0.000000   0.000081
     3  C    0.383017   0.000000   0.000000  -0.000001
     4  S   -0.015781   0.000001   0.000002  -0.000052
     5  C    0.002024  -0.000036  -0.000148  -0.002579
     6  C   -0.000036   0.002024   0.003376  -0.028308
     7  S    0.000001  -0.015781   0.002314   0.002646
     8  C    0.000000   0.383017  -0.022462   0.005098
     9  C    0.000000  -0.012892   0.374280  -0.024282
    10  C    0.000000   0.001328  -0.020842   0.376969
    11  H   -0.000071   0.000000  -0.000001   0.000856
    12  H    0.000662   0.000000   0.000000  -0.000001
    13  H    0.411658   0.000000   0.000000   0.000000
    14  H    0.000000   0.411658   0.000662  -0.000071
    15  H    0.000000   0.000662   0.444187   0.000111
    16  H    0.000000  -0.000071   0.000111   0.453203
 Mulliken charges:
               1
     1  C   -0.095418
     2  C   -0.127782
     3  C   -0.553994
     4  S    0.521965
     5  C   -0.408957
     6  C   -0.408959
     7  S    0.521968
     8  C   -0.553994
     9  C   -0.127784
    10  C   -0.095417
    11  H    0.215578
    12  H    0.218517
    13  H    0.230089
    14  H    0.230090
    15  H    0.218517
    16  H    0.215579
 Sum of Mulliken charges =   0.00000
 Mulliken charges with hydrogens summed into heavy atoms:
               1
     1  C    0.120161
     2  C    0.090736
     3  C   -0.323905
     4  S    0.521965
     5  C   -0.408957
     6  C   -0.408959
     7  S    0.521968
     8  C   -0.323904
     9  C    0.090733
    10  C    0.120162
 Electronic spatial extent (au):  <R**2>=           2018.5382
 Charge=              0.0000 electrons
 Dipole moment (field-independent basis, Debye):
    X=              2.2230    Y=              1.0621    Z=              0.0000  Tot=              2.4637
 Quadrupole moment (field-independent basis, Debye-Ang):
   XX=            -66.5910   YY=            -59.4525   ZZ=            -80.0774
   XY=             -4.4197   XZ=              0.0000   YZ=              0.0000
 Traceless Quadrupole moment (field-independent basis, Debye-Ang):
   XX=              2.1160   YY=              9.2544   ZZ=            -11.3704
   XY=             -4.4197   XZ=              0.0000   YZ=              0.0000
 Octapole moment (field-independent basis, Debye-Ang**2):
  XXX=             11.2381  YYY=             -0.1655  ZZZ=              0.0000  XYY=              2.1693
  XXY=              6.5715  XXZ=              0.0000  XZZ=             -1.8140  YZZ=             -0.8668
  YYZ=              0.0000  XYZ=              0.0000
 Hexadecapole moment (field-independent basis, Debye-Ang**3):
 XXXX=           -789.7060 YYYY=          -1581.0137 ZZZZ=            -94.7293 XXXY=            250.7350
 XXXZ=              0.0000 YYYX=            239.2036 YYYZ=              0.0000 ZZZX=              0.0000
 ZZZY=              0.0000 XXYY=           -393.4642 XXZZ=           -178.9032 YYZZ=           -364.8914
 XXYZ=              0.0000 YYXZ=              0.0000 ZZXY=            115.1546
 N-N= 6.277203832419D+02 E-N=-3.861694612582D+03  KE= 1.101812596916D+03
 Symmetry A'   KE= 1.016390808336D+03
 Symmetry A"   KE= 8.542178858033D+01
 Calling FoFJK, ICntrl=      2127 FMM=F ISym2X=1 I1Cent= 0 IOpClX= 0 NMat=1 NMatS=1 NMatT=0.
 ***** Axes restored to original set *****
 -------------------------------------------------------------------
 Center     Atomic                   Forces (Hartrees/Bohr)
 Number     Number              X              Y              Z
 -------------------------------------------------------------------
      1        6          -0.000000077    0.000000000   -0.000003455
      2        6           0.000009297    0.000000000    0.000093268
      3        6          -0.000096900    0.000000000   -0.000047769
      4       16           0.000014535    0.000000000   -0.000065965
      5        6           0.000080700    0.000000000    0.000036345
      6        6           0.000084155    0.000000000   -0.000012397
      7       16          -0.000003230    0.000000000    0.000068659
      8        6          -0.000107022    0.000000000    0.000018073
      9        6           0.000036173    0.000000000   -0.000085567
     10        6           0.000001225    0.000000000    0.000001845
     11        1           0.000012326    0.000000000    0.000026393
     12        1          -0.000013333    0.000000000    0.000014780
     13        1          -0.000011741    0.000000000   -0.000015377
     14        1          -0.000015765    0.000000000    0.000010899
     15        1          -0.000010159    0.000000000   -0.000018157
     16        1           0.000019815    0.000000000   -0.000021575
 -------------------------------------------------------------------
 Cartesian Forces:  Max     0.000107022 RMS     0.000037782

 GradGradGradGradGradGradGradGradGradGradGradGradGradGradGradGradGradGrad
 Berny optimization.
 FormGI is forming the generalized inverse of G from B-inverse, IUseBI=4.
 Internal  Forces:  Max     0.000074981 RMS     0.000027631
 Search for a local minimum.
 Step number   1 out of a maximum of   89 on scan point     1 out of    37
 All quantities printed in internal units (Hartrees-Bohrs-Radians)
 Mixed Optimization -- En-DIIS/RFO-DIIS
 Second derivative matrix not updated -- first step.
 ITU=  0
     Eigenvalues ---    0.01321   0.01322   0.01559   0.01661   0.01951
     Eigenvalues ---    0.01989   0.02173   0.02173   0.02241   0.02241
     Eigenvalues ---    0.02448   0.02448   0.16000   0.16000   0.16000
     Eigenvalues ---    0.16000   0.16000   0.16000   0.22120   0.22120
     Eigenvalues ---    0.23716   0.23716   0.25000   0.25000   0.25406
     Eigenvalues ---    0.25406   0.27083   0.27083   0.37151   0.37152
     Eigenvalues ---    0.37173   0.37173   0.37698   0.37698   0.38075
     Eigenvalues ---    0.38766   0.38766   0.51297   0.51297   0.55265
     Eigenvalues ---    0.552651000.000001000.000001000.000001000.00000
     Eigenvalues --- 1000.000001000.000001000.000001000.000001000.00000
     Eigenvalues --- 1000.000001000.000001000.000001000.000001000.00000
     Eigenvalues --- 1000.000001000.000001000.000001000.000001000.00000
     Eigenvalues --- 1000.000001000.000001000.000001000.000001000.00000
     Eigenvalues --- 1000.000001000.000001000.000001000.000001000.00000
     Eigenvalues --- 1000.000001000.000001000.000001000.000001000.00000
     Eigenvalues --- 1000.000001000.000001000.000001000.00000
 RFO step:  Lambda=-2.05666605D-07 EMin= 1.32132662D-02
 Linear search not attempted -- first point.
 Iteration  1 RMS(Cart)=  0.00013221 RMS(Int)=  0.00000001
 Iteration  2 RMS(Cart)=  0.00000001 RMS(Int)=  0.00000000
 Iteration  1 RMS(Cart)=  0.00000000 RMS(Int)=  0.00000000
 ClnCor:  largest displacement from symmetrization is 1.02D-14 for atom     1.
 Variable       Old X    -DE/DX   Delta X   Delta X   Delta X     New X
                                 (Linear)    (Quad)   (Total)
    R1        2.71736   0.00002   0.00000   0.00004   0.00004   2.71740
    R2        2.55387   0.00006   0.00000   0.00011   0.00011   2.55398
    R3        2.02287  -0.00002   0.00000  -0.00006  -0.00006   2.02280
    R4        2.53658  -0.00007   0.00000  -0.00014  -0.00014   2.53644
    R5        2.02319   0.00002   0.00000   0.00005   0.00005   2.02324
    R6        3.37241   0.00006   0.00000   0.00019   0.00019   3.37261
    R7        2.01506  -0.00002   0.00000  -0.00005  -0.00005   2.01501
    R8        3.41474  -0.00006   0.00000  -0.00023  -0.00023   3.41451
    R9        2.74256   0.00004   0.00000   0.00010   0.00010   2.74266
   R10        3.41473  -0.00006   0.00000  -0.00022  -0.00022   3.41451
   R11        2.55387   0.00006   0.00000   0.00011   0.00011   2.55398
   R12        3.37241   0.00006   0.00000   0.00020   0.00020   3.37261
   R13        2.53658  -0.00007   0.00000  -0.00014  -0.00014   2.53644
   R14        2.01506  -0.00002   0.00000  -0.00005  -0.00005   2.01501
   R15        2.71737   0.00001   0.00000   0.00004   0.00004   2.71740
   R16        2.02318   0.00002   0.00000   0.00006   0.00006   2.02324
   R17        2.02287  -0.00002   0.00000  -0.00006  -0.00006   2.02280
    A1        1.99781   0.00003   0.00000   0.00016   0.00016   1.99797
    A2        2.13911  -0.00003   0.00000  -0.00019  -0.00019   2.13892
    A3        2.14626   0.00000   0.00000   0.00003   0.00003   2.14629
    A4        1.98497  -0.00006   0.00000  -0.00028  -0.00028   1.98469
    A5        2.14621   0.00003   0.00000   0.00016   0.00016   2.14637
    A6        2.15200   0.00002   0.00000   0.00012   0.00012   2.15212
    A7        1.94950   0.00006   0.00000   0.00022   0.00022   1.94971
    A8        2.24541  -0.00003   0.00000  -0.00014  -0.00014   2.24526
    A9        2.08828  -0.00002   0.00000  -0.00007  -0.00007   2.08821
   A10        1.56935  -0.00002   0.00000  -0.00009  -0.00009   1.56926
   A11        1.92315  -0.00001   0.00000  -0.00001  -0.00001   1.92314
   A12        2.23377   0.00001   0.00000   0.00002   0.00002   2.23378
   A13        2.12627   0.00000   0.00000  -0.00001  -0.00001   2.12626
   A14        2.12627   0.00000   0.00000  -0.00001  -0.00001   2.12626
   A15        2.23376   0.00001   0.00000   0.00002   0.00002   2.23378
   A16        1.92315  -0.00001   0.00000  -0.00001  -0.00001   1.92314
   A17        1.56935  -0.00002   0.00000  -0.00009  -0.00009   1.56926
   A18        1.94950   0.00006   0.00000   0.00022   0.00022   1.94971
   A19        2.08828  -0.00002   0.00000  -0.00007  -0.00007   2.08821
   A20        2.24541  -0.00003   0.00000  -0.00015  -0.00015   2.24526
   A21        1.98497  -0.00006   0.00000  -0.00028  -0.00028   1.98469
   A22        2.15200   0.00003   0.00000   0.00012   0.00012   2.15212
   A23        2.14622   0.00003   0.00000   0.00015   0.00015   2.14638
   A24        1.99781   0.00003   0.00000   0.00016   0.00016   1.99797
   A25        2.14626   0.00000   0.00000   0.00003   0.00003   2.14629
   A26        2.13911  -0.00003   0.00000  -0.00019  -0.00019   2.13892
    D1        0.00000   0.00000   0.00000   0.00000   0.00000   0.00000
    D2        3.14159   0.00000   0.00000   0.00000   0.00000   3.14159
    D3        3.14159   0.00000   0.00000   0.00000   0.00000   3.14159
    D4        0.00000   0.00000   0.00000   0.00000   0.00000   0.00000
    D5        0.00000   0.00000   0.00000   0.00000   0.00000   0.00000
    D6        3.14159   0.00000   0.00000   0.00000   0.00000   3.14159
    D7        3.14159   0.00000   0.00000   0.00000   0.00000   3.14159
    D8        0.00000   0.00000   0.00000   0.00000   0.00000   0.00000
    D9        0.00000   0.00000   0.00000   0.00000   0.00000   0.00000
   D10        3.14159   0.00000   0.00000   0.00000   0.00000   3.14159
   D11        3.14159   0.00000   0.00000   0.00000   0.00000   3.14159
   D12        0.00000   0.00000   0.00000   0.00000   0.00000   0.00000
   D13        0.00000   0.00000   0.00000   0.00000   0.00000   0.00000
   D14        3.14159   0.00000   0.00000   0.00000   0.00000   3.14159
   D15        0.00000   0.00000   0.00000   0.00000   0.00000   0.00000
   D16        3.14159   0.00000   0.00000   0.00000   0.00000   3.14159
   D17        3.14159   0.00000   0.00000   0.00000   0.00000   3.14159
   D18        0.00000   0.00000   0.00000   0.00000   0.00000   0.00000
   D19        0.00000   0.00000   0.00000   0.00000   0.00000   0.00000
   D20        3.14159   0.00000   0.00000   0.00000   0.00000   3.14159
   D21        3.14159   0.00000   0.00000   0.00000   0.00000   3.14159
   D22        0.00000   0.00000   0.00000   0.00000   0.00000   0.00000
   D23        3.14159   0.00000   0.00000   0.00000   0.00000   3.14159
   D24        0.00000   0.00000   0.00000   0.00000   0.00000   0.00000
   D25        0.00000   0.00000   0.00000   0.00000   0.00000   0.00000
   D26        3.14159   0.00000   0.00000   0.00000   0.00000   3.14159
   D27        0.00000   0.00000   0.00000   0.00000   0.00000   0.00000
   D28        3.14159   0.00000   0.00000   0.00000   0.00000   3.14159
   D29        0.00000   0.00000   0.00000   0.00000   0.00000   0.00000
   D30        3.14159   0.00000   0.00000   0.00000   0.00000   3.14159
   D31        3.14159   0.00000   0.00000   0.00000   0.00000   3.14159
   D32        0.00000   0.00000   0.00000   0.00000   0.00000   0.00000
   D33        0.00000   0.00000   0.00000   0.00000   0.00000   0.00000
   D34        3.14159   0.00000   0.00000   0.00000   0.00000   3.14159
   D35        3.14159   0.00000   0.00000   0.00000   0.00000   3.14159
   D36        0.00000   0.00000   0.00000   0.00000   0.00000   0.00000
         Item               Value     Threshold  Converged?
 Maximum Force            0.000075     0.000450     YES
 RMS     Force            0.000028     0.000300     YES
 Maximum Displacement     0.000361     0.001800     YES
 RMS     Displacement     0.000132     0.001200     YES
 Predicted change in Energy=-1.028336D-07
 Optimization completed.
    -- Stationary point found.
                           ----------------------------
                           !   Optimized Parameters   !
                           ! (Angstroms and Degrees)  !
 --------------------------                            --------------------------
 ! Name  Definition              Value          Derivative Info.                !
 --------------------------------------------------------------------------------
 ! R1    R(1,2)                  1.438          -DE/DX =    0.0                 !
 ! R2    R(1,5)                  1.3514         -DE/DX =    0.0001              !
 ! R3    R(1,11)                 1.0705         -DE/DX =    0.0                 !
 ! R4    R(2,3)                  1.3423         -DE/DX =   -0.0001              !
 ! R5    R(2,12)                 1.0706         -DE/DX =    0.0                 !
 ! R6    R(3,4)                  1.7846         -DE/DX =    0.0001              !
 ! R7    R(3,13)                 1.0663         -DE/DX =    0.0                 !
 ! R8    R(4,5)                  1.807          -DE/DX =   -0.0001              !
 ! R9    R(5,6)                  1.4513         -DE/DX =    0.0                 !
 ! R10   R(6,7)                  1.807          -DE/DX =   -0.0001              !
 ! R11   R(6,10)                 1.3514         -DE/DX =    0.0001              !
 ! R12   R(7,8)                  1.7846         -DE/DX =    0.0001              !
 ! R13   R(8,9)                  1.3423         -DE/DX =   -0.0001              !
 ! R14   R(8,14)                 1.0663         -DE/DX =    0.0                 !
 ! R15   R(9,10)                 1.438          -DE/DX =    0.0                 !
 ! R16   R(9,15)                 1.0706         -DE/DX =    0.0                 !
 ! R17   R(10,16)                1.0705         -DE/DX =    0.0                 !
 ! A1    A(2,1,5)              114.4663         -DE/DX =    0.0                 !
 ! A2    A(2,1,11)             122.5622         -DE/DX =    0.0                 !
 ! A3    A(5,1,11)             122.9714         -DE/DX =    0.0                 !
 ! A4    A(1,2,3)              113.7302         -DE/DX =   -0.0001              !
 ! A5    A(1,2,12)             122.969          -DE/DX =    0.0                 !
 ! A6    A(3,2,12)             123.3008         -DE/DX =    0.0                 !
 ! A7    A(2,3,4)              111.698          -DE/DX =    0.0001              !
 ! A8    A(2,3,13)             128.6523         -DE/DX =    0.0                 !
 ! A9    A(4,3,13)             119.6497         -DE/DX =    0.0                 !
 ! A10   A(3,4,5)               89.9172         -DE/DX =    0.0                 !
 ! A11   A(1,5,4)              110.1883         -DE/DX =    0.0                 !
 ! A12   A(1,5,6)              127.9854         -DE/DX =    0.0                 !
 ! A13   A(4,5,6)              121.8263         -DE/DX =    0.0                 !
 ! A14   A(5,6,7)              121.8265         -DE/DX =    0.0                 !
 ! A15   A(5,6,10)             127.9851         -DE/DX =    0.0                 !
 ! A16   A(7,6,10)             110.1884         -DE/DX =    0.0                 !
 ! A17   A(6,7,8)               89.9173         -DE/DX =    0.0                 !
 ! A18   A(7,8,9)              111.698          -DE/DX =    0.0001              !
 ! A19   A(7,8,14)             119.6495         -DE/DX =    0.0                 !
 ! A20   A(9,8,14)             128.6525         -DE/DX =    0.0                 !
 ! A21   A(8,9,10)             113.7302         -DE/DX =   -0.0001              !
 ! A22   A(8,9,15)             123.3003         -DE/DX =    0.0                 !
 ! A23   A(10,9,15)            122.9695         -DE/DX =    0.0                 !
 ! A24   A(6,10,9)             114.4661         -DE/DX =    0.0                 !
 ! A25   A(6,10,16)            122.9717         -DE/DX =    0.0                 !
 ! A26   A(9,10,16)            122.5622         -DE/DX =    0.0                 !
 ! D1    D(5,1,2,3)              0.0            -DE/DX =    0.0                 !
 ! D2    D(5,1,2,12)           180.0            -DE/DX =    0.0                 !
 ! D3    D(11,1,2,3)           180.0            -DE/DX =    0.0                 !
 ! D4    D(11,1,2,12)            0.0            -DE/DX =    0.0                 !
 ! D5    D(2,1,5,4)              0.0            -DE/DX =    0.0                 !
 ! D6    D(2,1,5,6)            180.0            -DE/DX =    0.0                 !
 ! D7    D(11,1,5,4)           180.0            -DE/DX =    0.0                 !
 ! D8    D(11,1,5,6)             0.0            -DE/DX =    0.0                 !
 ! D9    D(1,2,3,4)              0.0            -DE/DX =    0.0                 !
 ! D10   D(1,2,3,13)           180.0            -DE/DX =    0.0                 !
 ! D11   D(12,2,3,4)           180.0            -DE/DX =    0.0                 !
 ! D12   D(12,2,3,13)            0.0            -DE/DX =    0.0                 !
 ! D13   D(2,3,4,5)              0.0            -DE/DX =    0.0                 !
 ! D14   D(13,3,4,5)           180.0            -DE/DX =    0.0                 !
 ! D15   D(3,4,5,1)              0.0            -DE/DX =    0.0                 !
 ! D16   D(3,4,5,6)            180.0            -DE/DX =    0.0                 !
 ! D17   D(1,5,6,7)            180.0            -DE/DX =    0.0                 !
 ! D18   D(1,5,6,10)             0.0            -DE/DX =    0.0                 !
 ! D19   D(4,5,6,7)              0.0            -DE/DX =    0.0                 !
 ! D20   D(4,5,6,10)           180.0            -DE/DX =    0.0                 !
 ! D21   D(5,6,7,8)            180.0            -DE/DX =    0.0                 !
 ! D22   D(10,6,7,8)             0.0            -DE/DX =    0.0                 !
 ! D23   D(5,6,10,9)           180.0            -DE/DX =    0.0                 !
 ! D24   D(5,6,10,16)            0.0            -DE/DX =    0.0                 !
 ! D25   D(7,6,10,9)             0.0            -DE/DX =    0.0                 !
 ! D26   D(7,6,10,16)          180.0            -DE/DX =    0.0                 !
 ! D27   D(6,7,8,9)              0.0            -DE/DX =    0.0                 !
 ! D28   D(6,7,8,14)           180.0            -DE/DX =    0.0                 !
 ! D29   D(7,8,9,10)             0.0            -DE/DX =    0.0                 !
 ! D30   D(7,8,9,15)           180.0            -DE/DX =    0.0                 !
 ! D31   D(14,8,9,10)          180.0            -DE/DX =    0.0                 !
 ! D32   D(14,8,9,15)            0.0            -DE/DX =    0.0                 !
 ! D33   D(8,9,10,6)             0.0            -DE/DX =    0.0                 !
 ! D34   D(8,9,10,16)          180.0            -DE/DX =    0.0                 !
 ! D35   D(15,9,10,6)          180.0            -DE/DX =    0.0                 !
 ! D36   D(15,9,10,16)           0.0            -DE/DX =    0.0                 !
 --------------------------------------------------------------------------------
 Iteration  1 RMS(Cart)=  0.02353724 RMS(Int)=  0.01447322
 Iteration  2 RMS(Cart)=  0.00085925 RMS(Int)=  0.01446925
 Iteration  3 RMS(Cart)=  0.00000177 RMS(Int)=  0.01446925
 Iteration  4 RMS(Cart)=  0.00000012 RMS(Int)=  0.01446925
 Iteration  1 RMS(Cart)=  0.01278759 RMS(Int)=  0.00785619
 Iteration  2 RMS(Cart)=  0.00695294 RMS(Int)=  0.00877681
 Iteration  3 RMS(Cart)=  0.00377836 RMS(Int)=  0.00990838
 Iteration  4 RMS(Cart)=  0.00205242 RMS(Int)=  0.01065070
 Iteration  5 RMS(Cart)=  0.00111461 RMS(Int)=  0.01108321
 Iteration  6 RMS(Cart)=  0.00060523 RMS(Int)=  0.01132562
 Iteration  7 RMS(Cart)=  0.00032861 RMS(Int)=  0.01145930
 Iteration  8 RMS(Cart)=  0.00017841 RMS(Int)=  0.01153246
 Iteration  9 RMS(Cart)=  0.00009686 RMS(Int)=  0.01157235
 Iteration 10 RMS(Cart)=  0.00005259 RMS(Int)=  0.01159406
 Iteration 11 RMS(Cart)=  0.00002855 RMS(Int)=  0.01160586
 Iteration 12 RMS(Cart)=  0.00001550 RMS(Int)=  0.01161227
 Iteration 13 RMS(Cart)=  0.00000841 RMS(Int)=  0.01161575
 Iteration 14 RMS(Cart)=  0.00000457 RMS(Int)=  0.01161764
 Iteration 15 RMS(Cart)=  0.00000248 RMS(Int)=  0.01161866
 Iteration 16 RMS(Cart)=  0.00000135 RMS(Int)=  0.01161922
 Iteration 17 RMS(Cart)=  0.00000073 RMS(Int)=  0.01161952
 GradGradGradGradGradGradGradGradGradGradGradGradGradGradGradGradGradGrad

                          Input orientation:                          
 ---------------------------------------------------------------------
 Center     Atomic      Atomic             Coordinates (Angstroms)
 Number     Number       Type             X           Y           Z
 ---------------------------------------------------------------------
      1          6           0       -0.117866   -0.051620    0.121456
      2          6           0        0.011610   -0.032448    1.553462
      3          6           0        1.282590    0.033624    1.979605
      4         16           0        2.433354    0.087546    0.616610
      5          6           0        1.055819   -0.019990   -0.548406
      6          6           0        1.263024    0.019990   -1.984383
      7         16           0        2.913719   -0.087546   -2.712440
      8          6           0        2.195223   -0.033624   -4.345159
      9          6           0        0.855617    0.032448   -4.295712
     10          6           0        0.326589    0.051620   -2.958725
     11          1           0       -1.067989   -0.090716   -0.370150
     12          1           0       -0.829662   -0.060940    2.215138
     13          1           0        1.648625    0.066309    2.980623
     14          1           0        2.829319   -0.066309   -5.201864
     15          1           0        0.235722    0.060940   -5.168229
     16          1           0       -0.723754    0.090716   -2.755776
 ---------------------------------------------------------------------
                    Distance matrix (angstroms):
                    1          2          3          4          5
     1  C    0.000000
     2  C    1.437976   0.000000
     3  C    2.328360   1.342145   0.000000
     4  S    2.602551   2.599410   1.784634   0.000000
     5  C    1.351759   2.346994   2.538728   1.807327   0.000000
     6  C    2.519235   3.753017   3.964059   2.852964   1.451400
     7  S    4.150032   5.159767   4.968958   3.368083   2.852963
     8  C    5.030045   6.289825   6.390622   4.968958   3.964058
     9  C    4.523949   5.910110   6.289826   5.159768   3.753016
    10  C    3.113794   4.523949   5.030046   4.150033   2.519234
    11  H    1.070484   2.206629   3.325963   3.642097   2.132448
    12  H    2.211390   1.070685   2.127447   3.636566   3.345728
    13  H    3.362921   2.174019   1.066344   2.490945   3.579514
    14  H    6.084723   7.319498   7.346825   5.833961   4.980172
    15  H    5.302684   6.726075   7.224140   6.188267   4.692746
    16  H    2.943778   4.373268   5.143200   4.619560   2.837537
                    6          7          8          9         10
     6  C    0.000000
     7  S    1.807326   0.000000
     8  C    2.538726   1.784633   0.000000
     9  C    2.346993   2.599410   1.342145   0.000000
    10  C    1.351759   2.602550   2.328359   1.437975   0.000000
    11  H    2.837538   4.619559   5.143200   4.373268   2.943778
    12  H    4.692746   6.188266   7.224138   6.726073   5.302683
    13  H    4.980173   5.833961   7.346825   7.319499   6.084723
    14  H    3.579512   2.490945   1.066344   2.174019   3.362920
    15  H    3.345728   3.636566   2.127447   1.070685   2.211391
    16  H    2.132448   3.642096   3.325962   2.206629   1.070484
                   11         12         13         14         15
    11  H    0.000000
    12  H    2.596421   0.000000
    13  H    4.316518   2.596935   0.000000
    14  H    6.207661   8.270435   8.268296   0.000000
    15  H    4.974357   7.460831   8.270436   2.596934   0.000000
    16  H    2.417153   4.974355   6.207662   4.316517   2.596422
                   16
    16  H    0.000000
 Stoichiometry    C8H6S2
 Framework group  C1[X(C8H6S2)]
 Deg. of freedom    42
 Full point group                 C1      NOp   1
 Omega: Change in point group or standard orientation.

 Old FWG=CS   [SG(C8H6S2)]
 New FWG=C01  [X(C8H6S2)]
 Largest Abelian subgroup         C1      NOp   1
 Largest concise Abelian subgroup C1      NOp   1
                         Standard orientation:                         
 ---------------------------------------------------------------------
 Center     Atomic      Atomic             Coordinates (Angstroms)
 Number     Number       Type             X           Y           Z
 ---------------------------------------------------------------------
      1          6           0       -1.555540    1.408696   -0.064979
      2          6           0       -2.954489    1.076033   -0.057819
      3          6           0       -3.195305   -0.242778    0.006189
      4         16           0       -1.682454   -1.187088    0.073102
      5          6           0       -0.725226    0.342709   -0.026218
      6          6           0        0.725226    0.342708    0.026218
      7         16           0        1.682454   -1.187088   -0.073102
      8          6           0        3.195305   -0.242778   -0.006189
      9          6           0        2.954490    1.076033    0.057819
     10          6           0        1.555541    1.408696    0.064979
     11          1           0       -1.204344    2.419288   -0.101061
     12          1           0       -3.729256    1.814185   -0.092964
     13          1           0       -4.134034   -0.748022    0.030814
     14          1           0        4.134033   -0.748023   -0.030814
     15          1           0        3.729258    1.814183    0.092964
     16          1           0        1.204344    2.419287    0.101061
 ---------------------------------------------------------------------
 Rotational constants (GHZ):      2.6653138      0.6544499      0.5260678
 Standard basis: 6-31G (6D, 7F)
 There are   110 symmetry adapted cartesian basis functions of A   symmetry.
 There are   110 symmetry adapted basis functions of A   symmetry.
   110 basis functions,   292 primitive gaussians,   110 cartesian basis functions
    43 alpha electrons       43 beta electrons
       nuclear repulsion energy       627.5553178072 Hartrees.
 NAtoms=   16 NActive=   16 NUniq=   16 SFac= 1.00D+00 NAtFMM=   60 NAOKFM=F Big=F
 Integral buffers will be    131072 words long.
 Raffenetti 1 integral format.
 Two-electron integral symmetry is turned on.
 One-electron integrals computed using PRISM.
 NBasis=   110 RedAO= T EigKep=  1.18D-03  NBF=   110
 NBsUse=   110 1.00D-06 EigRej= -1.00D+00 NBFU=   110
 Initial guess from the checkpoint file:  "/scratch/107868.1.iqtc01.q/Gau-7191.chk"
 B after Tr=     0.000000    0.000000    0.000000
         Rot=    0.845907    0.000008    0.000013   -0.533330 Ang=  64.46 deg.
 ExpMin= 1.17D-01 ExpMax= 2.19D+04 ExpMxC= 3.30D+03 IAcc=1 IRadAn=         1 AccDes= 0.00D+00
 Harris functional with IExCor=  205 and IRadAn=       1 diagonalized for initial guess.
 HarFok:  IExCor=  205 AccDes= 0.00D+00 IRadAn=         1 IDoV= 1 UseB2=F ITyADJ=14
 ICtDFT=  3500011 ScaDFX=  1.000000  1.000000  1.000000  1.000000
 FoFCou: FMM=F IPFlag=           0 FMFlag=      100000 FMFlg1=           0
         NFxFlg=           0 DoJE=T BraDBF=F KetDBF=T FulRan=T
         wScrn=  0.000000 ICntrl=     500 IOpCl=  0 I1Cent=   200000004 NGrid=           0
         NMat0=    1 NMatS0=      1 NMatT0=    0 NMatD0=    1 NMtDS0=    0 NMtDT0=    0
 Petite list used in FoFCou.
 Keep R1 ints in memory in canonical form, NReq=19580756.
 Requested convergence on RMS density matrix=1.00D-08 within 128 cycles.
 Requested convergence on MAX density matrix=1.00D-06.
 Requested convergence on             energy=1.00D-06.
 No special actions if energy rises.
 SCF Done:  E(RHF) =  -1101.23005891     A.U. after   12 cycles
            NFock= 12  Conv=0.70D-08     -V/T= 1.9995
 Calling FoFJK, ICntrl=      2127 FMM=F ISym2X=0 I1Cent= 0 IOpClX= 0 NMat=1 NMatS=1 NMatT=0.
 ***** Axes restored to original set *****
 -------------------------------------------------------------------
 Center     Atomic                   Forces (Hartrees/Bohr)
 Number     Number              X              Y              Z
 -------------------------------------------------------------------
      1        6           0.000008377   -0.002728266   -0.000261556
      2        6          -0.000123426    0.000870363   -0.000067508
      3        6           0.000074246    0.001160736   -0.000060826
      4       16           0.000374834   -0.002383356   -0.000182493
      5        6          -0.000426110    0.008387952    0.000590398
      6        6          -0.000242784   -0.008387917   -0.000686529
      7       16           0.000308428    0.002383326    0.000280954
      8        6           0.000053967   -0.001160731    0.000078898
      9        6          -0.000137012   -0.000870387    0.000029777
     10        6          -0.000065886    0.002728272    0.000253219
     11        1           0.000047991   -0.000658869    0.000008817
     12        1           0.000033391   -0.000400566   -0.000034642
     13        1           0.000014727   -0.000446011   -0.000019154
     14        1           0.000008696    0.000446012    0.000022564
     15        1           0.000022194    0.000400567    0.000042872
     16        1           0.000048367    0.000658874    0.000005210
 -------------------------------------------------------------------
 Cartesian Forces:  Max     0.008387952 RMS     0.001905981

 GradGradGradGradGradGradGradGradGradGradGradGradGradGradGradGradGradGrad
 Berny optimization.
 FormGI is forming the generalized inverse of G from B-inverse, IUseBI=4.
 Internal  Forces:  Max     0.002415079 RMS     0.000582482
 Search for a local minimum.
 Step number   1 out of a maximum of   89 on scan point     2 out of    37
 All quantities printed in internal units (Hartrees-Bohrs-Radians)
 Mixed Optimization -- RFO/linear search
 Second derivative matrix not updated -- first step.
 ITU=  0
     Eigenvalues ---    0.01322   0.01323   0.01565   0.01670   0.01952
     Eigenvalues ---    0.01992   0.02173   0.02173   0.02241   0.02242
     Eigenvalues ---    0.02448   0.02448   0.15999   0.15999   0.15999
     Eigenvalues ---    0.15999   0.16000   0.16000   0.22117   0.22117
     Eigenvalues ---    0.23701   0.23706   0.24931   0.24932   0.25404
     Eigenvalues ---    0.25404   0.27080   0.27081   0.37151   0.37152
     Eigenvalues ---    0.37173   0.37173   0.37698   0.37698   0.38075
     Eigenvalues ---    0.38765   0.38765   0.51294   0.51296   0.55264
     Eigenvalues ---    0.552641000.000001000.000001000.000001000.00000
     Eigenvalues --- 1000.000001000.000001000.000001000.000001000.00000
     Eigenvalues --- 1000.000001000.000001000.000001000.000001000.00000
     Eigenvalues --- 1000.000001000.000001000.000001000.000001000.00000
     Eigenvalues --- 1000.000001000.000001000.000001000.000001000.00000
     Eigenvalues --- 1000.000001000.000001000.000001000.000001000.00000
     Eigenvalues --- 1000.000001000.000001000.000001000.000001000.00000
     Eigenvalues --- 1000.000001000.000001000.000001000.00000
 RFO step:  Lambda=-1.09169368D-03 EMin= 1.32238161D-02
 Linear search not attempted -- first point.
 Iteration  1 RMS(Cart)=  0.04938602 RMS(Int)=  0.00110312
 Iteration  2 RMS(Cart)=  0.00147408 RMS(Int)=  0.00022085
 Iteration  3 RMS(Cart)=  0.00000224 RMS(Int)=  0.00022085
 Iteration  4 RMS(Cart)=  0.00000000 RMS(Int)=  0.00022085
 Iteration  1 RMS(Cart)=  0.00000469 RMS(Int)=  0.00000287
 Iteration  2 RMS(Cart)=  0.00000255 RMS(Int)=  0.00000320
 Iteration  3 RMS(Cart)=  0.00000138 RMS(Int)=  0.00000362
 Iteration  4 RMS(Cart)=  0.00000075 RMS(Int)=  0.00000389
 Variable       Old X    -DE/DX   Delta X   Delta X   Delta X     New X
                                 (Linear)    (Quad)   (Total)
    R1        2.71738  -0.00008   0.00000  -0.00019  -0.00019   2.71719
    R2        2.55445  -0.00025   0.00000  -0.00053  -0.00053   2.55393
    R3        2.02292  -0.00002   0.00000  -0.00006  -0.00006   2.02286
    R4        2.53629   0.00020   0.00000   0.00042   0.00042   2.53670
    R5        2.02330  -0.00004   0.00000  -0.00010  -0.00010   2.02320
    R6        3.37247  -0.00001   0.00000   0.00005   0.00006   3.37253
    R7        2.01510  -0.00003   0.00000  -0.00007  -0.00007   2.01503
    R8        3.41535  -0.00008   0.00000  -0.00043  -0.00043   3.41493
    R9        2.74275  -0.00013   0.00000  -0.00035  -0.00035   2.74240
   R10        3.41535  -0.00008   0.00000  -0.00042  -0.00042   3.41493
   R11        2.55446  -0.00025   0.00000  -0.00053  -0.00053   2.55393
   R12        3.37247  -0.00001   0.00000   0.00005   0.00006   3.37253
   R13        2.53629   0.00020   0.00000   0.00042   0.00042   2.53670
   R14        2.01510  -0.00003   0.00000  -0.00007  -0.00007   2.01503
   R15        2.71738  -0.00008   0.00000  -0.00019  -0.00019   2.71719
   R16        2.02330  -0.00004   0.00000  -0.00010  -0.00010   2.02320
   R17        2.02292  -0.00002   0.00000  -0.00006  -0.00006   2.02286
    A1        1.99874  -0.00023   0.00000  -0.00106  -0.00127   1.99747
    A2        2.13854   0.00013   0.00000   0.00061   0.00070   2.13924
    A3        2.14590   0.00011   0.00000   0.00047   0.00056   2.14646
    A4        1.98462   0.00000   0.00000   0.00032   0.00009   1.98471
    A5        2.14638  -0.00002   0.00000  -0.00026  -0.00020   2.14618
    A6        2.15216   0.00002   0.00000   0.00004   0.00011   2.15227
    A7        1.94940   0.00009   0.00000   0.00091   0.00049   1.94989
    A8        2.24545  -0.00004   0.00000  -0.00022  -0.00035   2.24510
    A9        2.08827  -0.00004   0.00000  -0.00026  -0.00039   2.08787
   A10        1.56983  -0.00024   0.00000  -0.00088  -0.00118   1.56866
   A11        1.92170   0.00042   0.00000   0.00269   0.00180   1.92350
   A12        2.23303   0.00014   0.00000   0.00200   0.00141   2.23444
   A13        2.12622  -0.00045   0.00000  -0.00039  -0.00098   2.12524
   A14        2.12622  -0.00045   0.00000  -0.00039  -0.00098   2.12524
   A15        2.23303   0.00014   0.00000   0.00200   0.00141   2.23444
   A16        1.92170   0.00042   0.00000   0.00269   0.00180   1.92350
   A17        1.56983  -0.00024   0.00000  -0.00088  -0.00117   1.56866
   A18        1.94940   0.00009   0.00000   0.00091   0.00049   1.94989
   A19        2.08827  -0.00004   0.00000  -0.00026  -0.00039   2.08787
   A20        2.24545  -0.00004   0.00000  -0.00021  -0.00035   2.24510
   A21        1.98462   0.00000   0.00000   0.00032   0.00009   1.98471
   A22        2.15216   0.00002   0.00000   0.00004   0.00011   2.15227
   A23        2.14638  -0.00002   0.00000  -0.00027  -0.00020   2.14618
   A24        1.99874  -0.00023   0.00000  -0.00106  -0.00127   1.99747
   A25        2.14590   0.00011   0.00000   0.00047   0.00056   2.14646
   A26        2.13854   0.00013   0.00000   0.00061   0.00070   2.13924
    D1        0.01613  -0.00061   0.00000  -0.02439  -0.02438  -0.00825
    D2       -3.13301  -0.00009   0.00000  -0.01002  -0.01001   3.14016
    D3       -3.12848  -0.00056   0.00000  -0.01665  -0.01665   3.13805
    D4        0.00556  -0.00003   0.00000  -0.00228  -0.00229   0.00328
    D5       -0.02950   0.00124   0.00000   0.05629   0.05631   0.02681
    D6       -3.09957  -0.00060   0.00000  -0.01251  -0.01257  -3.11213
    D7        3.11512   0.00119   0.00000   0.04851   0.04855  -3.11952
    D8        0.04506  -0.00066   0.00000  -0.02029  -0.02033   0.02472
    D9        0.00588  -0.00035   0.00000  -0.02088  -0.02086  -0.01498
   D10        3.13465   0.00062   0.00000   0.01978   0.01977  -3.12876
   D11       -3.12813  -0.00088   0.00000  -0.03529  -0.03528   3.11977
   D12        0.00064   0.00009   0.00000   0.00536   0.00535   0.00599
   D13       -0.01854   0.00087   0.00000   0.04345   0.04342   0.02488
   D14        3.13457   0.00000   0.00000   0.00692   0.00690   3.14148
   D15        0.02707  -0.00118   0.00000  -0.05605  -0.05608  -0.02901
   D16        3.10228   0.00055   0.00000   0.00789   0.00785   3.11013
   D17       -3.04613   0.00034   0.00000   0.07617   0.07615  -2.96998
   D18        0.01640   0.00242   0.00000   0.15234   0.15230   0.16869
   D19        0.17453  -0.00173   0.00000   0.00000   0.00001   0.17454
   D20       -3.04613   0.00034   0.00000   0.07617   0.07615  -2.96998
   D21        3.10228   0.00055   0.00000   0.00790   0.00785   3.11013
   D22        0.02707  -0.00118   0.00000  -0.05605  -0.05608  -0.02901
   D23       -3.09957  -0.00060   0.00000  -0.01251  -0.01257  -3.11213
   D24        0.04506  -0.00066   0.00000  -0.02029  -0.02033   0.02472
   D25       -0.02950   0.00124   0.00000   0.05629   0.05631   0.02681
   D26        3.11512   0.00119   0.00000   0.04851   0.04855  -3.11952
   D27       -0.01854   0.00087   0.00000   0.04345   0.04342   0.02488
   D28        3.13457   0.00000   0.00000   0.00692   0.00690   3.14148
   D29        0.00588  -0.00035   0.00000  -0.02088  -0.02086  -0.01498
   D30       -3.12813  -0.00088   0.00000  -0.03529  -0.03528   3.11977
   D31        3.13465   0.00062   0.00000   0.01978   0.01977  -3.12876
   D32        0.00064   0.00009   0.00000   0.00536   0.00535   0.00599
   D33        0.01613  -0.00061   0.00000  -0.02439  -0.02438  -0.00825
   D34       -3.12848  -0.00056   0.00000  -0.01665  -0.01665   3.13805
   D35       -3.13301  -0.00009   0.00000  -0.01002  -0.01001   3.14016
   D36        0.00556  -0.00003   0.00000  -0.00228  -0.00229   0.00328
         Item               Value     Threshold  Converged?
 Maximum Force            0.002577     0.000450     NO 
 RMS     Force            0.000510     0.000300     NO 
 Maximum Displacement     0.222036     0.001800     NO 
 RMS     Displacement     0.049403     0.001200     NO 
 Predicted change in Energy=-5.814574D-04
 GradGradGradGradGradGradGradGradGradGradGradGradGradGradGradGradGradGrad

                          Input orientation:                          
 ---------------------------------------------------------------------
 Center     Atomic      Atomic             Coordinates (Angstroms)
 Number     Number       Type             X           Y           Z
 ---------------------------------------------------------------------
      1          6           0       -0.116930   -0.104050    0.122781
      2          6           0        0.012792   -0.050105    1.553776
      3          6           0        1.280368    0.078278    1.976521
      4         16           0        2.430614    0.118444    0.612575
      5          6           0        1.051812   -0.006688   -0.548830
      6          6           0        1.259060    0.006688   -1.985109
      7         16           0        2.909951   -0.118444   -2.709344
      8          6           0        2.192220   -0.078278   -4.342830
      9          6           0        0.856840    0.050105   -4.295679
     10          6           0        0.327862    0.104049   -2.959731
     11          1           0       -1.063291   -0.208213   -0.366525
     12          1           0       -0.824900   -0.113368    2.217495
     13          1           0        1.646584    0.130448    2.976608
     14          1           0        2.826225   -0.130447   -5.198590
     15          1           0        0.240956    0.113368   -5.169142
     16          1           0       -0.718223    0.208213   -2.757925
 ---------------------------------------------------------------------
                    Distance matrix (angstroms):
                    1          2          3          4          5
     1  C    0.000000
     2  C    1.437876   0.000000
     3  C    2.328527   1.342366   0.000000
     4  S    2.603725   2.600025   1.784664   0.000000
     5  C    1.351479   2.345719   2.537096   1.807101   0.000000
     6  C    2.519685   3.752349   3.962334   2.851840   1.451217
     7  S    4.145256   5.154842   4.965035   3.364674   2.851840
     8  C    5.027377   6.286546   6.386719   4.965035   3.962335
     9  C    4.527116   5.910887   6.286546   5.154842   3.752348
    10  C    3.121381   4.527116   5.027376   4.145256   2.519684
    11  H    1.070452   2.206922   3.326361   3.643173   2.132488
    12  H    2.211140   1.070632   2.127664   3.637015   3.344545
    13  H    3.362930   2.174011   1.066306   2.490683   3.577887
    14  H    6.081106   7.315485   7.342715   5.829931   4.978367
    15  H    5.308465   6.728775   7.220950   6.182466   4.692461
    16  H    2.959312   4.380854   5.140645   4.613405   2.838892
                    6          7          8          9         10
     6  C    0.000000
     7  S    1.807101   0.000000
     8  C    2.537096   1.784664   0.000000
     9  C    2.345719   2.600025   1.342366   0.000000
    10  C    1.351479   2.603725   2.328528   1.437876   0.000000
    11  H    2.838893   4.613405   5.140646   4.380854   2.959312
    12  H    4.692461   6.182466   7.220950   6.728775   5.308465
    13  H    4.978366   5.829931   7.342715   7.315484   6.081105
    14  H    3.577887   2.490683   1.066307   2.174012   3.362931
    15  H    3.344545   3.637015   2.127664   1.070632   2.211140
    16  H    2.132488   3.643173   3.326361   2.206923   1.070452
                   11         12         13         14         15
    11  H    0.000000
    12  H    2.596726   0.000000
    13  H    4.316787   2.596908   0.000000
    14  H    6.203486   8.266156   8.263988   0.000000
    15  H    4.986944   7.466584   8.266156   2.596908   0.000000
    16  H    2.451791   4.986943   6.203485   4.316787   2.596726
                   16
    16  H    0.000000
 Stoichiometry    C8H6S2
 Framework group  C1[X(C8H6S2)]
 Deg. of freedom    42
 Full point group                 C1      NOp   1
 Largest Abelian subgroup         C1      NOp   1
 Largest concise Abelian subgroup C1      NOp   1
                         Standard orientation:                         
 ---------------------------------------------------------------------
 Center     Atomic      Atomic             Coordinates (Angstroms)
 Number     Number       Type             X           Y           Z
 ---------------------------------------------------------------------
      1          6           0       -1.555767    1.405929   -0.123875
      2          6           0       -2.954141    1.073168   -0.087739
      3          6           0       -3.193138   -0.241790    0.037611
      4         16           0       -1.679534   -1.185451    0.097060
      5          6           0       -0.725433    0.345085   -0.015929
      6          6           0        0.725434    0.345084    0.015929
      7         16           0        1.679535   -1.185451   -0.097060
      8          6           0        3.193138   -0.241790   -0.037611
      9          6           0        2.954141    1.073168    0.087739
     10          6           0        1.555767    1.405929    0.123875
     11          1           0       -1.205334    2.412469   -0.223583
     12          1           0       -3.729824    1.807483   -0.160887
     13          1           0       -4.131261   -0.747080    0.077835
     14          1           0        4.131261   -0.747079   -0.077834
     15          1           0        3.729824    1.807483    0.160887
     16          1           0        1.205334    2.412469    0.223583
 ---------------------------------------------------------------------
 Rotational constants (GHZ):      2.6638019      0.6546518      0.5269941
 Standard basis: 6-31G (6D, 7F)
 There are   110 symmetry adapted cartesian basis functions of A   symmetry.
 There are   110 symmetry adapted basis functions of A   symmetry.
   110 basis functions,   292 primitive gaussians,   110 cartesian basis functions
    43 alpha electrons       43 beta electrons
       nuclear repulsion energy       627.6582673925 Hartrees.
 NAtoms=   16 NActive=   16 NUniq=   16 SFac= 1.00D+00 NAtFMM=   60 NAOKFM=F Big=F
 Integral buffers will be    131072 words long.
 Raffenetti 1 integral format.
 Two-electron integral symmetry is turned on.
 One-electron integrals computed using PRISM.
 NBasis=   110 RedAO= T EigKep=  1.19D-03  NBF=   110
 NBsUse=   110 1.00D-06 EigRej= -1.00D+00 NBFU=   110
 Initial guess from the checkpoint file:  "/scratch/107868.1.iqtc01.q/Gau-7191.chk"
 B after Tr=     0.000000    0.000000    0.000000
         Rot=    1.000000    0.000000   -0.000022    0.000000 Ang=   0.00 deg.
 ExpMin= 1.17D-01 ExpMax= 2.19D+04 ExpMxC= 3.30D+03 IAcc=1 IRadAn=         1 AccDes= 0.00D+00
 Harris functional with IExCor=  205 and IRadAn=       1 diagonalized for initial guess.
 HarFok:  IExCor=  205 AccDes= 0.00D+00 IRadAn=         1 IDoV= 1 UseB2=F ITyADJ=14
 ICtDFT=  3500011 ScaDFX=  1.000000  1.000000  1.000000  1.000000
 FoFCou: FMM=F IPFlag=           0 FMFlag=      100000 FMFlg1=           0
         NFxFlg=           0 DoJE=T BraDBF=F KetDBF=T FulRan=T
         wScrn=  0.000000 ICntrl=     500 IOpCl=  0 I1Cent=   200000004 NGrid=           0
         NMat0=    1 NMatS0=      1 NMatT0=    0 NMatD0=    1 NMtDS0=    0 NMtDT0=    0
 Petite list used in FoFCou.
 Keep R1 ints in memory in canonical form, NReq=19580756.
 Requested convergence on RMS density matrix=1.00D-08 within 128 cycles.
 Requested convergence on MAX density matrix=1.00D-06.
 Requested convergence on             energy=1.00D-06.
 No special actions if energy rises.
 SCF Done:  E(RHF) =  -1101.23039620     A.U. after   12 cycles
            NFock= 12  Conv=0.72D-08     -V/T= 1.9995
 Calling FoFJK, ICntrl=      2127 FMM=F ISym2X=0 I1Cent= 0 IOpClX= 0 NMat=1 NMatS=1 NMatT=0.
 ***** Axes restored to original set *****
 -------------------------------------------------------------------
 Center     Atomic                   Forces (Hartrees/Bohr)
 Number     Number              X              Y              Z
 -------------------------------------------------------------------
      1        6          -0.000069397    0.001358380   -0.000345906
      2        6           0.000168908    0.000004459    0.000238881
      3        6           0.000086498   -0.002738215    0.000193687
      4       16          -0.000302633    0.002944689   -0.000105294
      5        6           0.000162467   -0.000840132   -0.000084618
      6        6           0.000131544    0.000840142    0.000127082
      7       16          -0.000319810   -0.002944675    0.000015546
      8        6           0.000137497    0.002738180   -0.000161312
      9        6           0.000229658   -0.000004412   -0.000181464
     10        6          -0.000164226   -0.001358408    0.000312142
     11        1           0.000061484   -0.000154172   -0.000175502
     12        1          -0.000031344    0.000501252    0.000019115
     13        1          -0.000042567    0.000161754    0.000028681
     14        1          -0.000032731   -0.000161759   -0.000039532
     15        1          -0.000024725   -0.000501246   -0.000027206
     16        1           0.000009378    0.000154164    0.000185700
 -------------------------------------------------------------------
 Cartesian Forces:  Max     0.002944689 RMS     0.000900251

 GradGradGradGradGradGradGradGradGradGradGradGradGradGradGradGradGradGrad
 Berny optimization.
 Using GEDIIS/GDIIS optimizer.
 FormGI is forming the generalized inverse of G from B-inverse, IUseBI=4.
 Internal  Forces:  Max     0.001387078 RMS     0.000525475
 Search for a local minimum.
 Step number   2 out of a maximum of   89 on scan point     2 out of    37
 All quantities printed in internal units (Hartrees-Bohrs-Radians)
 Mixed Optimization -- En-DIIS/RFO-DIIS
 Update second derivatives using D2CorX and points    1    2
 DE= -3.37D-04 DEPred=-5.81D-04 R= 5.80D-01
 TightC=F SS=  1.41D+00  RLast= 2.52D-01 DXNew= 5.0454D-01 7.5566D-01
 Trust test= 5.80D-01 RLast= 2.52D-01 DXMaxT set to 5.05D-01
 ITU=  1  0
 Use linear search instead of GDIIS.
     Eigenvalues ---    0.00886   0.01323   0.01662   0.01790   0.01990
     Eigenvalues ---    0.02131   0.02173   0.02174   0.02242   0.02425
     Eigenvalues ---    0.02448   0.03993   0.15994   0.15994   0.15999
     Eigenvalues ---    0.16000   0.16000   0.16011   0.22117   0.22117
     Eigenvalues ---    0.23713   0.23715   0.25000   0.25144   0.25402
     Eigenvalues ---    0.25405   0.27080   0.27081   0.37151   0.37152
     Eigenvalues ---    0.37173   0.37173   0.37698   0.37699   0.38075
     Eigenvalues ---    0.38765   0.38782   0.51275   0.51293   0.55266
     Eigenvalues ---    0.552761000.000001000.000001000.000001000.00000
     Eigenvalues --- 1000.000001000.000001000.000001000.000001000.00000
     Eigenvalues --- 1000.000001000.000001000.000001000.000001000.00000
     Eigenvalues --- 1000.000001000.000001000.000001000.000001000.00000
     Eigenvalues --- 1000.000001000.000001000.000001000.000001000.00000
     Eigenvalues --- 1000.000001000.000001000.000001000.000001000.00000
     Eigenvalues --- 1000.000001000.000001000.000001000.000001000.00000
     Eigenvalues --- 1000.000001000.000001000.000001000.00000
 RFO step:  Lambda=-5.27545705D-04 EMin= 8.86082534D-03
 Quartic linear search produced a step of -0.27711.
 Iteration  1 RMS(Cart)=  0.02130166 RMS(Int)=  0.00044263
 Iteration  2 RMS(Cart)=  0.00121376 RMS(Int)=  0.00006217
 Iteration  3 RMS(Cart)=  0.00000068 RMS(Int)=  0.00006216
 Iteration  1 RMS(Cart)=  0.00000091 RMS(Int)=  0.00000056
 Variable       Old X    -DE/DX   Delta X   Delta X   Delta X     New X
                                 (Linear)    (Quad)   (Total)
    R1        2.71719   0.00028   0.00005   0.00032   0.00041   2.71760
    R2        2.55393  -0.00025   0.00015  -0.00071  -0.00050   2.55343
    R3        2.02286   0.00004   0.00002   0.00003   0.00005   2.02291
    R4        2.53670  -0.00012  -0.00012   0.00014  -0.00001   2.53669
    R5        2.02320   0.00001   0.00003  -0.00006  -0.00003   2.02317
    R6        3.37253   0.00013  -0.00002   0.00040   0.00032   3.37284
    R7        2.01503   0.00002   0.00002  -0.00002   0.00000   2.01503
    R8        3.41493  -0.00002   0.00012  -0.00032  -0.00019   3.41473
    R9        2.74240  -0.00024   0.00010  -0.00072  -0.00062   2.74178
   R10        3.41493  -0.00002   0.00012  -0.00032  -0.00019   3.41473
   R11        2.55393  -0.00025   0.00015  -0.00071  -0.00050   2.55343
   R12        3.37253   0.00013  -0.00002   0.00040   0.00032   3.37284
   R13        2.53670  -0.00012  -0.00012   0.00014  -0.00001   2.53669
   R14        2.01503   0.00002   0.00002  -0.00002   0.00000   2.01503
   R15        2.71719   0.00028   0.00005   0.00032   0.00041   2.71760
   R16        2.02320   0.00001   0.00003  -0.00006  -0.00003   2.02317
   R17        2.02286   0.00004   0.00002   0.00003   0.00005   2.02291
    A1        1.99747   0.00004   0.00035  -0.00058  -0.00031   1.99716
    A2        2.13924   0.00016  -0.00019   0.00122   0.00087   2.14011
    A3        2.14646  -0.00021  -0.00016  -0.00053  -0.00085   2.14562
    A4        1.98471  -0.00001  -0.00003   0.00007  -0.00007   1.98465
    A5        2.14618   0.00004   0.00005  -0.00008  -0.00007   2.14611
    A6        2.15227  -0.00003  -0.00003  -0.00016  -0.00023   2.15204
    A7        1.94989  -0.00005  -0.00014   0.00045   0.00015   1.95004
    A8        2.24510   0.00001   0.00010  -0.00020  -0.00006   2.24505
    A9        2.08787   0.00007   0.00011   0.00007   0.00022   2.08810
   A10        1.56866   0.00005   0.00033  -0.00040  -0.00024   1.56842
   A11        1.92350   0.00002  -0.00050   0.00120   0.00078   1.92427
   A12        2.23444  -0.00050  -0.00039  -0.00104  -0.00141   2.23304
   A13        2.12524   0.00048   0.00027  -0.00005   0.00024   2.12549
   A14        2.12524   0.00048   0.00027  -0.00005   0.00024   2.12549
   A15        2.23444  -0.00050  -0.00039  -0.00103  -0.00140   2.23304
   A16        1.92350   0.00002  -0.00050   0.00120   0.00078   1.92427
   A17        1.56866   0.00005   0.00033  -0.00040  -0.00024   1.56842
   A18        1.94989  -0.00005  -0.00014   0.00045   0.00015   1.95004
   A19        2.08787   0.00007   0.00011   0.00007   0.00022   2.08810
   A20        2.24510   0.00001   0.00010  -0.00020  -0.00006   2.24505
   A21        1.98471  -0.00001  -0.00003   0.00007  -0.00007   1.98465
[...]
           D32         -0.06977  -0.04474   0.01132   0.06937   0.10764
           D33          0.17207   0.40625   0.64041   0.79920   0.78774
           D34       -178.74077-178.24187-177.83539-177.65217-177.86108
           D35        179.62760 179.73182 179.90203-179.92333-179.81403
           D36          0.71476   1.08370   1.42623   1.62530   1.53715
                          36        37
     Eigenvalues --  ********************
           R1           1.43817   1.43804
           R2           1.35131   1.35146
           R3           1.07049   1.07043
           R4           1.34225   1.34225
           R5           1.07064   1.07065
           R6           1.78494   1.78473
           R7           1.06632   1.06630
           R8           1.80678   1.80684
           R9           1.45105   1.45132
           R10          1.80673   1.80690
           R11          1.35130   1.35150
           R12          1.78498   1.78468
           R13          1.34224   1.34226
           R14          1.06632   1.06631
           R15          1.43820   1.43799
           R16          1.07064   1.07064
           R17          1.07048   1.07044
           A1         114.45192 114.46623
           A2         122.63822 122.54814
           A3         122.90436 122.98562
           A4         113.71026 113.72345
           A5         122.98186 122.97469
           A6         123.30688 123.30185
           A7         111.72080 111.70160
           A8         128.63662 128.64648
           A9         119.64258 119.65192
           A10         89.88680  89.91433
           A11        110.22789 110.19438
           A12        127.91622 127.99251
           A13        121.85205 121.81311
           A14        121.83965 121.83061
           A15        127.92446 127.97999
           A16        110.23207 110.18940
           A17         89.88764  89.91324
           A18        111.71667 111.70744
           A19        119.65238 119.63747
           A20        128.63095 128.65509
           A21        113.71421 113.71816
           A22        123.30758 123.30023
           A23        122.97721 122.98161
           A24        114.44703 114.47175
           A25        122.91498 122.97023
           A26        122.63255 122.55802
           D1           0.51633   0.00232
           D2        -179.83745 180.00496
           D3        -178.65257 180.01027
           D4           0.99365   0.01291
           D5          -0.50556  -0.00072
           D6        -179.79456 180.00165
           D7         178.66085-180.00871
           D8          -0.62815  -0.00634
           D9          -0.26174  -0.00277
           D10        179.73355 180.00287
           D11       -179.90664 179.99459
           D12          0.08865   0.00023
           D13         -0.01492   0.00198
           D14        179.98931-180.00309
           D15          0.29856  -0.00067
           D16        179.63820-180.00287
           D17        169.21449-180.00265
           D18        -11.56795   0.00171
           D19        -10.00009  -0.00003
           D20        169.21747-179.99567
           D21        179.64280-179.99841
           D22          0.30058  -0.00207
           D23       -179.80057 179.99792
           D24         -0.62951  -0.01185
           D25         -0.50898   0.00186
           D26        178.66208-180.00790
           D27         -0.01499   0.00183
           D28        179.98539-179.99838
           D29         -0.26357  -0.00116
           D30       -179.90857 179.99867
           D31        179.73600 179.99907
           D32          0.09100  -0.00110
           D33          0.51985  -0.00049
           D34       -178.65384 180.00923
           D35       -179.83381-180.00032
           D36          0.99250   0.00939
                          Input orientation:                          
 ---------------------------------------------------------------------
 Center     Atomic      Atomic             Coordinates (Angstroms)
 Number     Number       Type             X           Y           Z
 ---------------------------------------------------------------------
      1          6           0        1.465320   -0.005756    0.351304
      2          6           0        0.932896   -0.010952    1.687139
      3          6           0       -0.408540   -0.011849    1.733813
      4         16           0       -1.125750   -0.006153    0.099543
      5          6           0        0.529860   -0.002629   -0.624071
      6          6           0        0.736968    0.002742   -2.060523
      7         16           0       -0.646489    0.006268   -3.222814
      8          6           0        0.503580    0.011824   -4.587506
      9          6           0        1.777114    0.010891   -4.163506
     10          6           0        1.910041    0.005739   -2.731681
     11          1           0        2.516726   -0.004611    0.150407
     12          1           0        1.551499   -0.013787    2.560989
     13          1           0       -1.045092   -0.015295    2.589252
     14          1           0        0.134672    0.015305   -5.587959
     15          1           0        2.617493    0.013707   -4.826847
     16          1           0        2.861645    0.004555   -2.241488
 ---------------------------------------------------------------------
                    Distance matrix (angstroms):
                    1          2          3          4          5
     1  C    0.000000
     2  C    1.438039   0.000000
     3  C    2.328673   1.342248   0.000000
     4  S    2.603273   2.599714   1.784731   0.000000
     5  C    1.351463   2.346103   2.537774   1.806841   0.000000
     6  C    2.519421   3.752806   3.963507   2.852312   1.451316
     7  S    4.151410   5.157752   4.962369   3.356769   2.852603
     8  C    5.031610   6.289356   6.386830   4.962203   3.963548
     9  C    4.525595   5.911280   6.289354   5.157567   3.752790
    10  C    3.114917   4.525601   5.031577   4.151144   2.519323
    11  H    1.070428   2.206831   3.326320   3.642832   2.132477
    12  H    2.211379   1.070649   2.127433   3.636817   3.344918
    13  H    3.363134   2.173998   1.066296   2.491032   3.578558
    14  H    6.086536   7.318806   7.341946   5.825530   4.979627
    15  H    5.304822   6.728335   7.224942   6.187211   4.692739
    16  H    2.944894   4.376576   5.147562   4.623836   2.837835
                    6          7          8          9         10
     6  C    0.000000
     7  S    1.806899   0.000000
     8  C    2.537753   1.784677   0.000000
     9  C    2.346169   2.599765   1.342262   0.000000
    10  C    1.351503   2.603278   2.328573   1.437991   0.000000
    11  H    2.838275   4.624356   5.147897   4.376884   2.945268
    12  H    4.692772   6.187401   7.224940   6.728324   5.304836
    13  H    4.979606   5.825759   7.342001   7.318830   6.086508
    14  H    3.578508   2.490824   1.066308   2.174098   3.363086
    15  H    3.345002   3.636833   2.127420   1.070637   2.211396
    16  H    2.132371   3.642803   3.326308   2.206899   1.070440
                   11         12         13         14         15
    11  H    0.000000
    12  H    2.596662   0.000000
    13  H    4.316784   2.596745   0.000000
    14  H    6.213166   8.271251   8.261935   0.000000
    15  H    4.978308   7.464397   8.271269   2.596862   0.000000
    16  H    2.416653   4.978012   6.212812   4.316870   2.596878
                   16
    16  H    0.000000
 Stoichiometry    C8H6S2
 Framework group  C1[X(C8H6S2)]
 Deg. of freedom    42
 Full point group                 C1      NOp   1
 Largest Abelian subgroup         C1      NOp   1
 Largest concise Abelian subgroup C1      NOp   1
                         Standard orientation:                         
 ---------------------------------------------------------------------
 Center     Atomic      Atomic             Coordinates (Angstroms)
 Number     Number       Type             X           Y           Z
 ---------------------------------------------------------------------
      1          6           0       -1.557518    1.411888   -0.000023
      2          6           0       -2.955697    1.075656    0.000009
      3          6           0       -3.193430   -0.245372    0.000061
      4         16           0       -1.678300   -1.188582   -0.000005
      5          6           0       -0.725699    0.346745   -0.000045
      6          6           0        0.725617    0.346628   -0.000046
      7         16           0        1.678470   -1.188610   -0.000006
      8          6           0        3.193400   -0.245181    0.000018
      9          6           0        2.955584    1.075845    0.000037
     10          6           0        1.557399    1.411851    0.000007
     11          1           0       -1.208553    2.423836    0.000097
     12          1           0       -3.732271    1.812691   -0.000049
     13          1           0       -4.130999   -0.753259    0.000051
     14          1           0        4.130935   -0.753158    0.000019
     15          1           0        3.732125    1.812898    0.000075
     16          1           0        1.208100    2.423697   -0.000127
 ---------------------------------------------------------------------
 Rotational constants (GHZ):      2.6653995      0.6556478      0.5262085

 **********************************************************************

            Population analysis using the SCF density.

 **********************************************************************

 Orbital symmetries:
       Occupied  (A) (A) (A) (A) (A) (A) (A) (A) (A) (A) (A) (A)
                 (A) (A) (A) (A) (A) (A) (A) (A) (A) (A) (A) (A)
                 (A) (A) (A) (A) (A) (A) (A) (A) (A) (A) (A) (A)
                 (A) (A) (A) (A) (A) (A) (A)
       Virtual   (A) (A) (A) (A) (A) (A) (A) (A) (A) (A) (A) (A)
                 (A) (A) (A) (A) (A) (A) (A) (A) (A) (A) (A) (A)
                 (A) (A) (A) (A) (A) (A) (A) (A) (A) (A) (A) (A)
                 (A) (A) (A) (A) (A) (A) (A) (A) (A) (A) (A) (A)
                 (A) (A) (A) (A) (A) (A) (A) (A) (A) (A) (A) (A)
                 (A) (A) (A) (A) (A) (A) (A)
 The electronic state is 1-A.
 Alpha  occ. eigenvalues --  -91.97243 -91.97241 -11.29782 -11.29701 -11.27764
 Alpha  occ. eigenvalues --  -11.27763 -11.25145 -11.25144 -11.25050 -11.25049
 Alpha  occ. eigenvalues --   -8.98989  -8.98988  -6.67127  -6.67126  -6.66990
 Alpha  occ. eigenvalues --   -6.66988  -6.66726  -6.66725  -1.19648  -1.16849
 Alpha  occ. eigenvalues --   -1.04751  -0.99568  -0.98117  -0.96669  -0.82082
 Alpha  occ. eigenvalues --   -0.77622  -0.75381  -0.72032  -0.71600  -0.64745
 Alpha  occ. eigenvalues --   -0.59490  -0.57324  -0.56444  -0.54916  -0.52711
 Alpha  occ. eigenvalues --   -0.50509  -0.49512  -0.47499  -0.45352  -0.38874
 Alpha  occ. eigenvalues --   -0.35805  -0.34851  -0.29077
 Alpha virt. eigenvalues --    0.07458   0.15041   0.16877   0.21388   0.21694
 Alpha virt. eigenvalues --    0.22538   0.24963   0.25874   0.27973   0.28393
 Alpha virt. eigenvalues --    0.28834   0.31665   0.32316   0.36933   0.38855
 Alpha virt. eigenvalues --    0.43386   0.44706   0.47196   0.48688   0.52304
 Alpha virt. eigenvalues --    0.53684   0.54949   0.55678   0.58620   0.60388
 Alpha virt. eigenvalues --    0.64560   0.64862   0.69009   0.72315   0.73925
 Alpha virt. eigenvalues --    0.75979   0.79122   0.79760   0.79967   0.82976
 Alpha virt. eigenvalues --    0.83827   0.86584   0.88124   0.89554   0.89561
 Alpha virt. eigenvalues --    0.92251   0.93592   0.97249   0.97257   1.06114
 Alpha virt. eigenvalues --    1.10095   1.12131   1.14431   1.14571   1.15301
 Alpha virt. eigenvalues --    1.17044   1.19954   1.20051   1.21413   1.21415
 Alpha virt. eigenvalues --    1.29866   1.33478   1.36576   1.41896   1.42915
 Alpha virt. eigenvalues --    1.45646   1.48962   1.59688   1.62193   1.69043
 Alpha virt. eigenvalues --    1.74318   1.81520
          Condensed to atoms (all electrons):
               1          2          3          4          5          6
     1  C    5.027927   0.408584  -0.051306  -0.071582   0.472867  -0.041757
     2  C    0.408584   5.093916   0.416743  -0.111745  -0.021834   0.004639
     3  C   -0.051306   0.416743   5.657101   0.266272  -0.105868   0.005834
     4  S   -0.071582  -0.111745   0.266272  15.201554   0.236382  -0.037073
     5  C    0.472867  -0.021834  -0.105868   0.236382   5.625833   0.295689
     6  C   -0.041757   0.004639   0.005834  -0.037073   0.295689   5.625662
     7  S    0.000158   0.000067  -0.000451   0.005335  -0.037045   0.236362
     8  C   -0.000042   0.000003  -0.000003  -0.000451   0.005833  -0.105870
     9  C    0.000277  -0.000015   0.000003   0.000067   0.004640  -0.021861
    10  C   -0.007956   0.000278  -0.000042   0.000160  -0.041793   0.472940
    11  H    0.376974  -0.024302   0.005100   0.002646  -0.028297  -0.002575
    12  H   -0.020829   0.374272  -0.022462   0.002313   0.003374  -0.000148
    13  H    0.001331  -0.012911   0.383028  -0.015774   0.002023  -0.000036
    14  H    0.000000   0.000000   0.000000   0.000001  -0.000036   0.002025
    15  H    0.000001   0.000000   0.000000   0.000002  -0.000148   0.003372
    16  H    0.000751   0.000081  -0.000001  -0.000052  -0.002576  -0.028312
               7          8          9         10         11         12
     1  C    0.000158  -0.000042   0.000277  -0.007956   0.376974  -0.020829
     2  C    0.000067   0.000003  -0.000015   0.000278  -0.024302   0.374272
     3  C   -0.000451  -0.000003   0.000003  -0.000042   0.005100  -0.022462
     4  S    0.005335  -0.000451   0.000067   0.000160   0.002646   0.002313
     5  C   -0.037045   0.005833   0.004640  -0.041793  -0.028297   0.003374
     6  C    0.236362  -0.105870  -0.021861   0.472940  -0.002575  -0.000148
     7  S   15.201493   0.266264  -0.111726  -0.071572  -0.000052   0.000002
     8  C    0.266264   5.657187   0.416713  -0.051297  -0.000001   0.000000
     9  C   -0.111726   0.416713   5.093866   0.408593   0.000081   0.000000
    10  C   -0.071572  -0.051297   0.408593   5.027933   0.000750   0.000001
    11  H   -0.000052  -0.000001   0.000081   0.000750   0.453220   0.000111
    12  H    0.000002   0.000000   0.000000   0.000001   0.000111   0.444163
    13  H    0.000001   0.000000   0.000000   0.000000  -0.000071   0.000663
    14  H   -0.015791   0.383014  -0.012891   0.001330   0.000000   0.000000
    15  H    0.002312  -0.022463   0.374272  -0.020820  -0.000001   0.000000
    16  H    0.002647   0.005101  -0.024293   0.376978   0.000856  -0.000001
              13         14         15         16
     1  C    0.001331   0.000000   0.000001   0.000751
     2  C   -0.012911   0.000000   0.000000   0.000081
     3  C    0.383028   0.000000   0.000000  -0.000001
     4  S   -0.015774   0.000001   0.000002  -0.000052
     5  C    0.002023  -0.000036  -0.000148  -0.002576
     6  C   -0.000036   0.002025   0.003372  -0.028312
     7  S    0.000001  -0.015791   0.002312   0.002647
     8  C    0.000000   0.383014  -0.022463   0.005101
     9  C    0.000000  -0.012891   0.374272  -0.024293
    10  C    0.000000   0.001330  -0.020820   0.376978
    11  H   -0.000071   0.000000  -0.000001   0.000856
    12  H    0.000663   0.000000   0.000000  -0.000001
    13  H    0.411699   0.000000   0.000000   0.000000
    14  H    0.000000   0.411688   0.000663  -0.000071
    15  H    0.000000   0.000663   0.444140   0.000112
    16  H    0.000000  -0.000071   0.000112   0.453227
 Mulliken charges:
               1
     1  C   -0.095401
     2  C   -0.127777
     3  C   -0.553949
     4  S    0.521942
     5  C   -0.409046
     6  C   -0.408892
     7  S    0.521996
     8  C   -0.553989
     9  C   -0.127728
    10  C   -0.095483
    11  H    0.215560
    12  H    0.218539
    13  H    0.230047
    14  H    0.230068
    15  H    0.218557
    16  H    0.215554
 Sum of Mulliken charges =   0.00000
 Mulliken charges with hydrogens summed into heavy atoms:
               1
     1  C    0.120159
     2  C    0.090763
     3  C   -0.323902
     4  S    0.521942
     5  C   -0.409046
     6  C   -0.408892
     7  S    0.521996
     8  C   -0.323921
     9  C    0.090829
    10  C    0.120072
 Electronic spatial extent (au):  <R**2>=           2018.4815
 Charge=              0.0000 electrons
 Dipole moment (field-independent basis, Debye):
    X=              0.0001    Y=              2.4636    Z=              0.0000  Tot=              2.4636
 Quadrupole moment (field-independent basis, Debye-Ang):
   XX=            -57.3394   YY=            -68.7022   ZZ=            -80.0773
   XY=             -0.0004   XZ=              0.0002   YZ=             -0.0001
 Traceless Quadrupole moment (field-independent basis, Debye-Ang):
   XX=             11.3669   YY=              0.0041   ZZ=            -11.3710
   XY=             -0.0004   XZ=              0.0002   YZ=             -0.0001
 Octapole moment (field-independent basis, Debye-Ang**2):
  XXX=              0.0007  YYY=             16.2505  ZZZ=             -0.0001  XYY=             -0.0012
  XXY=             -1.3810  XXZ=              0.0001  XZZ=              0.0005  YZZ=             -2.0108
  YYZ=              0.0000  XYZ=              0.0003
 Hexadecapole moment (field-independent basis, Debye-Ang**3):
 XXXX=          -1807.9030 YYYY=           -548.4633 ZZZZ=            -94.7292 XXXY=              0.0011
 XXXZ=              0.0059 YYYX=             -0.0024 YYYZ=             -0.0007 ZZZX=              0.0002
 ZZZY=              0.0000 XXYY=           -400.5726 XXZZ=           -419.8990 YYZZ=           -123.8812
 XXYZ=             -0.0015 YYXZ=             -0.0005 ZZXY=             -0.0007
 N-N= 6.277262945232D+02 E-N=-3.861706609566D+03  KE= 1.101812634661D+03
 1\1\GINC-G6INODE4\Scan\RHF\6-31G\C8H6S2\CMM21\29-Oct-2021\0\\# HF/6-31
 G Opt=ModRedundant\\bithiophene_test1\\0,1\C,1.4653198612,-0.005756075
 9,0.3513044909\C,0.9328964884,-0.0109521142,1.687139371\C,-0.408539673
 6,-0.0118492089,1.7338132082\S,-1.1257504584,-0.0061525292,0.099542561
 1\C,0.5298600067,-0.0026285465,-0.6240708212\C,0.7369677192,0.00274193
 6,-2.0605234718\S,-0.6464892767,0.0062682107,-3.2228143542\C,0.5035796
 633,0.0118244115,-4.5875058379\C,1.777114314,0.0108906066,-4.163506360
 9\C,1.9100405607,0.0057386795,-2.7316811874\H,2.5167260376,-0.00461102
 11,0.1504069518\H,1.5514985691,-0.0137868723,2.5609887192\H,-1.0450922
 393,-0.0152947764,2.5892518936\H,0.1346720036,0.0153053599,-5.58795946
 8\H,2.6174925072,0.0137072795,-4.8268470013\H,2.861644917,0.0045546608
 ,-2.2414876931\\Version=AM64L-G09RevD.01\State=1-A\HF=-1101.2303864,-1
 101.2306155,-1101.2311356,-1101.2316348,-1101.2318839,-1101.2317903,-1
 101.2313879,-1101.2308214,-1101.2303192,-1101.2301215,-1101.2303502,-1
 101.2309456,-1101.2317398,-1101.232551,-1101.2332297,-1101.2336842,-11
 01.2339027,-1101.2339571,-1101.2339569,-1101.2339571,-1101.2339028,-11
 01.2336843,-1101.2332297,-1101.2325511,-1101.2317399,-1101.2309456,-11
 01.2303502,-1101.2301214,-1101.2303191,-1101.2308212,-1101.2313881,-11
 01.2317904,-1101.231884,-1101.2316348,-1101.2311356,-1101.2306155,-110
 1.2303864\RMSD=5.495e-09,3.482e-09,5.233e-09,4.291e-09,4.728e-09,6.778
 e-09,7.528e-09,7.751e-09,5.112e-09,5.243e-09,5.449e-09,5.155e-09,8.759
 e-09,7.983e-09,5.008e-09,9.916e-09,2.993e-09,4.606e-09,3.110e-09,9.219
 e-09,4.150e-09,3.799e-09,3.916e-09,5.954e-09,6.653e-09,9.755e-09,3.210
 e-09,4.850e-09,6.042e-09,7.233e-09,6.044e-09,4.055e-09,8.915e-09,3.137
 e-09,5.228e-09,9.292e-09,2.665e-09\PG=C01 [X(C8H6S2)]\\@


 IT CANNOT BE MY BEAUTY, FOR I HAVE NONE; AND IT CANNOT BE MY WIT,
 FOR HE HAS NOT ENOUGH TO KNOW THAT I HAVE ANY.
 -- CATHARINE SEDLEY, PUZZLED ABOUT WHY SHE WAS MISTRESS TO JAMES II
 Job cpu time:       0 days  1 hours  4 minutes 32.9 seconds.
 File lengths (MBytes):  RWF=     11 Int=      0 D2E=      0 Chk=      5 Scr=      1
 Normal termination of Gaussian 09 at Fri Oct 29 20:00:35 2021.
