 Entering Gaussian System, Link 0=g09
 Initial command:
 /aplic/Gaussian/g09d01_prebuilt_iqtc01/g09/l1.exe "/scratch/106629.1.iqtc01.q/Gau-13648.inp" -scrdir="/scratch/106629.1.iqtc01.q/"
 Entering Link 1 = /aplic/Gaussian/g09d01_prebuilt_iqtc01/g09/l1.exe PID=     13650.
  
 Copyright (c) 1988,1990,1992,1993,1995,1998,2003,2009,2013,
            Gaussian, Inc.  All Rights Reserved.
  
 This is part of the Gaussian(R) 09 program.  It is based on
 the Gaussian(R) 03 system (copyright 2003, Gaussian, Inc.),
 the Gaussian(R) 98 system (copyright 1998, Gaussian, Inc.),
 the Gaussian(R) 94 system (copyright 1995, Gaussian, Inc.),
 the Gaussian 92(TM) system (copyright 1992, Gaussian, Inc.),
 the Gaussian 90(TM) system (copyright 1990, Gaussian, Inc.),
 the Gaussian 88(TM) system (copyright 1988, Gaussian, Inc.),
 the Gaussian 86(TM) system (copyright 1986, Carnegie Mellon
 University), and the Gaussian 82(TM) system (copyright 1983,
 Carnegie Mellon University). Gaussian is a federally registered
 trademark of Gaussian, Inc.
  
 This software contains proprietary and confidential information,
 including trade secrets, belonging to Gaussian, Inc.
  
 This software is provided under written license and may be
 used, copied, transmitted, or stored only in accord with that
 written license.
  
 The following legend is applicable only to US Government
 contracts under FAR:
  
                    RESTRICTED RIGHTS LEGEND
  
 Use, reproduction and disclosure by the US Government is
 subject to restrictions as set forth in subparagraphs (a)
 and (c) of the Commercial Computer Software - Restricted
 Rights clause in FAR 52.227-19.
  
 Gaussian, Inc.
 340 Quinnipiac St., Bldg. 40, Wallingford CT 06492
  
  
 ---------------------------------------------------------------
 Warning -- This program may not be used in any manner that
 competes with the business of Gaussian, Inc. or will provide
 assistance to any competitor of Gaussian, Inc.  The licensee
 of this program is prohibited from giving any competitor of
 Gaussian, Inc. access to this program.  By using this program,
 the user acknowledges that Gaussian, Inc. is engaged in the
 business of creating and licensing software in the field of
 computational chemistry and represents and warrants to the
 licensee that it is not a competitor of Gaussian, Inc. and that
 it will not use this program in any manner prohibited above.
 ---------------------------------------------------------------
  

 Cite this work as:
 Gaussian 09, Revision D.01,
 M. J. Frisch, G. W. Trucks, H. B. Schlegel, G. E. Scuseria, 
 M. A. Robb, J. R. Cheeseman, G. Scalmani, V. Barone, B. Mennucci, 
 G. A. Petersson, H. Nakatsuji, M. Caricato, X. Li, H. P. Hratchian, 
 A. F. Izmaylov, J. Bloino, G. Zheng, J. L. Sonnenberg, M. Hada, 
 M. Ehara, K. Toyota, R. Fukuda, J. Hasegawa, M. Ishida, T. Nakajima, 
 Y. Honda, O. Kitao, H. Nakai, T. Vreven, J. A. Montgomery, Jr., 
 J. E. Peralta, F. Ogliaro, M. Bearpark, J. J. Heyd, E. Brothers, 
 K. N. Kudin, V. N. Staroverov, T. Keith, R. Kobayashi, J. Normand, 
 K. Raghavachari, A. Rendell, J. C. Burant, S. S. Iyengar, J. Tomasi, 
 M. Cossi, N. Rega, J. M. Millam, M. Klene, J. E. Knox, J. B. Cross, 
 V. Bakken, C. Adamo, J. Jaramillo, R. Gomperts, R. E. Stratmann, 
 O. Yazyev, A. J. Austin, R. Cammi, C. Pomelli, J. W. Ochterski, 
 R. L. Martin, K. Morokuma, V. G. Zakrzewski, G. A. Voth, 
 P. Salvador, J. J. Dannenberg, S. Dapprich, A. D. Daniels, 
 O. Farkas, J. B. Foresman, J. V. Ortiz, J. Cioslowski, 
 and D. J. Fox, Gaussian, Inc., Wallingford CT, 2013.
 
 ******************************************
 Gaussian 09:  AM64L-G09RevD.01 24-Apr-2013
                15-Oct-2021 
 ******************************************
 %mem=3GB
 %NProcShared=4
 Will use up to    4 processors via shared memory.
 %chk=bithi.chk
 -------------------------
 #P B3LYP/6-31+G* opt freq
 -------------------------
 1/14=-1,18=20,19=15,26=3,38=1/1,3;
 2/9=110,12=2,17=6,18=5,40=1/2;
 3/5=1,6=6,7=11,11=2,16=1,25=1,30=1,71=1,74=-5/1,2,3;
 4//1;
 5/5=2,38=5/2;
 6/7=2,8=2,9=2,10=2,28=1/1;
 7//1,2,3,16;
 1/14=-1,18=20,19=15,26=3/3(2);
 2/9=110/2;
 99//99;
 2/9=110/2;
 3/5=1,6=6,7=11,11=2,16=1,25=1,30=1,71=1,74=-5/1,2,3;
 4/5=5,16=3,69=1/1;
 5/5=2,38=5/2;
 7//1,2,3,16;
 1/14=-1,18=20,19=15,26=3/3(-5);
 2/9=110/2;
 6/7=2,8=2,9=2,10=2,19=2,28=1/1;
 99/9=1/99;
 Leave Link    1 at Fri Oct 15 18:33:24 2021, MaxMem=   402653184 cpu:         0.3
 (Enter /aplic/Gaussian/g09d01_prebuilt_iqtc01/g09/l101.exe)
 -----------
 bithiophene
 -----------
 Symbolic Z-matrix:
 Charge =  0 Multiplicity = 1
 C
 C                    1    R1
 C                    2    R2       1    A1
 S                    3    R3       2    A2       1    D1       0
 C                    4    R3       3    A3       2    D1       0
 C                    5    R4       4    A4       3    D2       0
 S                    6    R3       5    A4       4    D3       0
 C                    7    R3       6    A3       5    D2       0
 C                    8    R2       7    A2       6    D1       0
 C                    9    R1       8    A1       7    D1       0
 H                    1    R5       2    A5       4    D1       0
 H                    2    R5       1    A5       3    D1       0
 H                    3    R5       4    A6       5    D1       0
 H                    8    R5       7    A6       6    D1       0
 H                    9    R5       8    A5       7    D1       0
 H                    10   R5       9    A5       8    D1       0
       Variables:
  R1                    1.43                     
  R2                    1.34                     
  R3                    1.72                     
  R4                    1.46                     
  R5                    1.07                     
  A1                  112.6                      
  A2                  111.                       
  A3                   91.6                      
  A4                  127.                       
  A5                  236.5                      
  A6                  233.                       
  D1                    0.                       
  D2                  180.                       
  D3                  180.                       
 
 NAtoms=     16 NQM=       16 NQMF=       0 NMMI=      0 NMMIF=      0
                NMic=       0 NMicF=      0.
                    Isotopes and Nuclear Properties:
 (Nuclear quadrupole moments (NQMom) in fm**2, nuclear magnetic moments (NMagM)
  in nuclear magnetons)

  Atom         1           2           3           4           5           6           7           8           9          10
 IAtWgt=          12          12          12          32          12          12          32          12          12          12
 AtmWgt=  12.0000000  12.0000000  12.0000000  31.9720718  12.0000000  12.0000000  31.9720718  12.0000000  12.0000000  12.0000000
 NucSpn=           0           0           0           0           0           0           0           0           0           0
 AtZEff=   0.0000000   0.0000000   0.0000000   0.0000000   0.0000000   0.0000000   0.0000000   0.0000000   0.0000000   0.0000000
 NQMom=    0.0000000   0.0000000   0.0000000   0.0000000   0.0000000   0.0000000   0.0000000   0.0000000   0.0000000   0.0000000
 NMagM=    0.0000000   0.0000000   0.0000000   0.0000000   0.0000000   0.0000000   0.0000000   0.0000000   0.0000000   0.0000000
 AtZNuc=   6.0000000   6.0000000   6.0000000  16.0000000   6.0000000   6.0000000  16.0000000   6.0000000   6.0000000   6.0000000

  Atom        11          12          13          14          15          16
 IAtWgt=           1           1           1           1           1           1
 AtmWgt=   1.0078250   1.0078250   1.0078250   1.0078250   1.0078250   1.0078250
 NucSpn=           1           1           1           1           1           1
 AtZEff=   0.0000000   0.0000000   0.0000000   0.0000000   0.0000000   0.0000000
 NQMom=    0.0000000   0.0000000   0.0000000   0.0000000   0.0000000   0.0000000
 NMagM=    2.7928460   2.7928460   2.7928460   2.7928460   2.7928460   2.7928460
 AtZNuc=   1.0000000   1.0000000   1.0000000   1.0000000   1.0000000   1.0000000
 Leave Link  101 at Fri Oct 15 18:33:25 2021, MaxMem=   402653184 cpu:         1.6
 (Enter /aplic/Gaussian/g09d01_prebuilt_iqtc01/g09/l103.exe)

 GradGradGradGradGradGradGradGradGradGradGradGradGradGradGradGradGradGrad
 Berny optimization.
 Initialization pass.
                           ----------------------------
                           !    Initial Parameters    !
                           ! (Angstroms and Degrees)  !
 --------------------------                            --------------------------
 ! Name  Definition              Value          Derivative Info.                !
 --------------------------------------------------------------------------------
 ! R1    R(1,2)                  1.43           estimate D2E/DX2                !
 ! R2    R(1,5)                  1.3186         estimate D2E/DX2                !
 ! R3    R(1,11)                 1.07           estimate D2E/DX2                !
 ! R4    R(2,3)                  1.34           estimate D2E/DX2                !
 ! R5    R(2,12)                 1.07           estimate D2E/DX2                !
 ! R6    R(3,4)                  1.72           estimate D2E/DX2                !
 ! R7    R(3,13)                 1.07           estimate D2E/DX2                !
 ! R8    R(4,5)                  1.72           estimate D2E/DX2                !
 ! R9    R(5,6)                  1.46           estimate D2E/DX2                !
 ! R10   R(6,7)                  1.72           estimate D2E/DX2                !
 ! R11   R(6,10)                 1.3186         estimate D2E/DX2                !
 ! R12   R(7,8)                  1.72           estimate D2E/DX2                !
 ! R13   R(8,9)                  1.34           estimate D2E/DX2                !
 ! R14   R(8,14)                 1.07           estimate D2E/DX2                !
 ! R15   R(9,10)                 1.43           estimate D2E/DX2                !
 ! R16   R(9,15)                 1.07           estimate D2E/DX2                !
 ! R17   R(10,16)                1.07           estimate D2E/DX2                !
 ! A1    A(2,1,5)              113.277          estimate D2E/DX2                !
 ! A2    A(2,1,11)             123.5            estimate D2E/DX2                !
 ! A3    A(5,1,11)             123.223          estimate D2E/DX2                !
 ! A4    A(1,2,3)              112.6            estimate D2E/DX2                !
 ! A5    A(1,2,12)             123.5            estimate D2E/DX2                !
 ! A6    A(3,2,12)             123.9            estimate D2E/DX2                !
 ! A7    A(2,3,4)              111.0            estimate D2E/DX2                !
 ! A8    A(2,3,13)             122.0            estimate D2E/DX2                !
 ! A9    A(4,3,13)             127.0            estimate D2E/DX2                !
 ! A10   A(3,4,5)               91.6            estimate D2E/DX2                !
 ! A11   A(1,5,4)              111.523          estimate D2E/DX2                !
 ! A12   A(1,5,6)              121.477          estimate D2E/DX2                !
 ! A13   A(4,5,6)              127.0            estimate D2E/DX2                !
 ! A14   A(5,6,7)              127.0            estimate D2E/DX2                !
 ! A15   A(5,6,10)             121.477          estimate D2E/DX2                !
 ! A16   A(7,6,10)             111.523          estimate D2E/DX2                !
 ! A17   A(6,7,8)               91.6            estimate D2E/DX2                !
 ! A18   A(7,8,9)              111.0            estimate D2E/DX2                !
 ! A19   A(7,8,14)             127.0            estimate D2E/DX2                !
 ! A20   A(9,8,14)             122.0            estimate D2E/DX2                !
 ! A21   A(8,9,10)             112.6            estimate D2E/DX2                !
 ! A22   A(8,9,15)             123.5            estimate D2E/DX2                !
 ! A23   A(10,9,15)            123.9            estimate D2E/DX2                !
 ! A24   A(6,10,9)             113.277          estimate D2E/DX2                !
 ! A25   A(6,10,16)            123.223          estimate D2E/DX2                !
 ! A26   A(9,10,16)            123.5            estimate D2E/DX2                !
 ! D1    D(5,1,2,3)              0.0            estimate D2E/DX2                !
 ! D2    D(5,1,2,12)           180.0            estimate D2E/DX2                !
 ! D3    D(11,1,2,3)           180.0            estimate D2E/DX2                !
 ! D4    D(11,1,2,12)            0.0            estimate D2E/DX2                !
 ! D5    D(2,1,5,4)              0.0            estimate D2E/DX2                !
 ! D6    D(2,1,5,6)            180.0            estimate D2E/DX2                !
 ! D7    D(11,1,5,4)           180.0            estimate D2E/DX2                !
 ! D8    D(11,1,5,6)             0.0            estimate D2E/DX2                !
 ! D9    D(1,2,3,4)              0.0            estimate D2E/DX2                !
 ! D10   D(1,2,3,13)           180.0            estimate D2E/DX2                !
 ! D11   D(12,2,3,4)           180.0            estimate D2E/DX2                !
 ! D12   D(12,2,3,13)            0.0            estimate D2E/DX2                !
 ! D13   D(2,3,4,5)              0.0            estimate D2E/DX2                !
 ! D14   D(13,3,4,5)           180.0            estimate D2E/DX2                !
 ! D15   D(3,4,5,1)              0.0            estimate D2E/DX2                !
 ! D16   D(3,4,5,6)            180.0            estimate D2E/DX2                !
 ! D17   D(1,5,6,7)              0.0            estimate D2E/DX2                !
 ! D18   D(1,5,6,10)           180.0            estimate D2E/DX2                !
 ! D19   D(4,5,6,7)            180.0            estimate D2E/DX2                !
 ! D20   D(4,5,6,10)             0.0            estimate D2E/DX2                !
 ! D21   D(5,6,7,8)            180.0            estimate D2E/DX2                !
 ! D22   D(10,6,7,8)             0.0            estimate D2E/DX2                !
 ! D23   D(5,6,10,9)           180.0            estimate D2E/DX2                !
 ! D24   D(5,6,10,16)            0.0            estimate D2E/DX2                !
 ! D25   D(7,6,10,9)             0.0            estimate D2E/DX2                !
 ! D26   D(7,6,10,16)          180.0            estimate D2E/DX2                !
 ! D27   D(6,7,8,9)              0.0            estimate D2E/DX2                !
 ! D28   D(6,7,8,14)           180.0            estimate D2E/DX2                !
 ! D29   D(7,8,9,10)             0.0            estimate D2E/DX2                !
 ! D30   D(7,8,9,15)           180.0            estimate D2E/DX2                !
 ! D31   D(14,8,9,10)          180.0            estimate D2E/DX2                !
 ! D32   D(14,8,9,15)            0.0            estimate D2E/DX2                !
 ! D33   D(8,9,10,6)             0.0            estimate D2E/DX2                !
 ! D34   D(8,9,10,16)          180.0            estimate D2E/DX2                !
 ! D35   D(15,9,10,6)          180.0            estimate D2E/DX2                !
 ! D36   D(15,9,10,16)           0.0            estimate D2E/DX2                !
 --------------------------------------------------------------------------------
 Trust Radius=3.00D-01 FncErr=1.00D-07 GrdErr=1.00D-06
 Number of steps in this run=     89 maximum allowed number of steps=    100.
 GradGradGradGradGradGradGradGradGradGradGradGradGradGradGradGradGradGrad

 Leave Link  103 at Fri Oct 15 18:33:25 2021, MaxMem=   402653184 cpu:         0.1
 (Enter /aplic/Gaussian/g09d01_prebuilt_iqtc01/g09/l202.exe)
                          Input orientation:                          
 ---------------------------------------------------------------------
 Center     Atomic      Atomic             Coordinates (Angstroms)
 Number     Number       Type             X           Y           Z
 ---------------------------------------------------------------------
      1          6           0        0.000000    0.000000    0.000000
      2          6           0        0.000000    0.000000    1.430000
      3          6           0        1.237102    0.000000    1.944956
      4         16           0        2.423247    0.000000    0.699380
      5          6           0        1.211276    0.000000   -0.521082
      6          6           0        1.419515    0.000000   -1.966155
      7         16           0        0.207544    0.000000   -3.186617
      8          6           0        1.393689    0.000000   -4.432192
      9          6           0        2.630791    0.000000   -3.917236
     10          6           0        2.630791    0.000000   -2.487236
     11          1           0       -0.892258    0.000000   -0.590573
     12          1           0       -0.892258    0.000000    2.020573
     13          1           0        1.411860    0.000000    3.000588
     14          1           0        1.218931    0.000000   -5.487824
     15          1           0        3.518904    0.000000   -4.514024
     16          1           0        3.523049    0.000000   -1.896664
 ---------------------------------------------------------------------
                    Distance matrix (angstroms):
                    1          2          3          4          5
     1  C    0.000000
     2  C    1.430000   0.000000
     3  C    2.305054   1.340000   0.000000
     4  S    2.522154   2.530994   1.720000   0.000000
     5  C    1.318604   2.296499   2.466172   1.720000   0.000000
     6  C    2.425033   3.680882   3.915362   2.848255   1.460000
     7  S    3.193368   4.621279   5.233834   4.473289   2.848255
     8  C    4.646149   6.025584   6.379070   5.233834   3.915362
     9  C    4.718665   5.959362   6.025584   4.621279   3.680882
    10  C    3.620415   4.718665   4.646149   3.193368   2.425033
    11  H    1.070000   2.208809   3.311054   3.557605   2.104682
    12  H    2.208809   1.070000   2.130702   3.569051   3.299221
    13  H    3.316154   2.111894   1.070000   2.513655   3.527377
    14  H    5.621566   7.024392   7.432802   6.303323   4.966749
    15  H    5.723556   6.907540   6.850185   5.327292   4.611804
    16  H    4.001151   4.845469   4.470302   2.819398   2.690078
                    6          7          8          9         10
     6  C    0.000000
     7  S    1.720000   0.000000
     8  C    2.466172   1.720000   0.000000
     9  C    2.296499   2.530994   1.340000   0.000000
    10  C    1.318604   2.522154   2.305054   1.430000   0.000000
    11  H    2.690078   2.819398   4.470302   4.845469   4.001151
    12  H    4.608502   5.322066   6.845709   6.904307   5.721208
    13  H    4.966749   6.303323   7.432802   7.024392   5.621566
    14  H    3.527377   2.513655   1.070000   2.111894   3.316154
    15  H    3.301374   3.567509   2.126790   1.070000   2.212829
    16  H    2.104682   3.557605   3.311054   2.208809   1.070000
                   11         12         13         14         15
    11  H    0.000000
    12  H    2.611145   0.000000
    13  H    4.266778   2.503875   0.000000
    14  H    5.332935   7.799560   8.490604   0.000000
    15  H    5.903543   7.884117   7.804423   2.497632   0.000000
    16  H    4.604434   5.902514   5.332935   4.266778   2.617363
                   16
    16  H    0.000000
 Stoichiometry    C8H6S2
 Framework group  CS[SG(C8H6S2)]
 Deg. of freedom    29
 Full point group                 CS      NOp   2
 Largest Abelian subgroup         CS      NOp   2
 Largest concise Abelian subgroup C1      NOp   1
                         Standard orientation:                         
 ---------------------------------------------------------------------
 Center     Atomic      Atomic             Coordinates (Angstroms)
 Number     Number       Type             X           Y           Z
 ---------------------------------------------------------------------
      1          6           0       -1.315347   -1.243690    0.000000
      2          6           0       -1.315347   -2.673690    0.000000
      3          6           0       -0.078246   -3.188646    0.000000
      4         16           0        1.107900   -1.943071    0.000000
      5          6           0       -0.104071   -0.722609    0.000000
      6          6           0        0.104167    0.722464    0.000000
      7         16           0       -1.107804    1.942926    0.000000
      8          6           0        0.078342    3.188502    0.000000
      9          6           0        1.315444    2.673546    0.000000
     10          6           0        1.315444    1.243546    0.000000
     11          1           0       -2.207605   -0.653118    0.000000
     12          1           0       -2.207605   -3.264263    0.000000
     13          1           0        0.096513   -4.244278    0.000000
     14          1           0       -0.096417    4.244134    0.000000
     15          1           0        2.203557    3.270333    0.000000
     16          1           0        2.207702    0.652973    0.000000
 ---------------------------------------------------------------------
 Rotational constants (GHZ):      2.7859518      0.6602036      0.5337239
 Leave Link  202 at Fri Oct 15 18:33:25 2021, MaxMem=   402653184 cpu:         0.0
 (Enter /aplic/Gaussian/g09d01_prebuilt_iqtc01/g09/l301.exe)
 Standard basis: 6-31+G(d) (6D, 7F)
 Ernie: Thresh=  0.10000D-02 Tol=  0.10000D-05 Strict=F.
 There are   158 symmetry adapted cartesian basis functions of A'  symmetry.
 There are    52 symmetry adapted cartesian basis functions of A"  symmetry.
 There are   158 symmetry adapted basis functions of A'  symmetry.
 There are    52 symmetry adapted basis functions of A"  symmetry.
   210 basis functions,   392 primitive gaussians,   210 cartesian basis functions
    43 alpha electrons       43 beta electrons
       nuclear repulsion energy       638.4091048976 Hartrees.
 IExCor=  402 DFT=T Ex+Corr=B3LYP ExCW=0 ScaHFX=  0.200000
 ScaDFX=  0.800000  0.720000  1.000000  0.810000 ScalE2=  1.000000  1.000000
 IRadAn=      0 IRanWt=     -1 IRanGd=            0 ICorTp=0 IEmpDi=  4
 NAtoms=   16 NActive=   16 NUniq=   16 SFac= 1.00D+00 NAtFMM=   60 NAOKFM=F Big=F
 Integral buffers will be    131072 words long.
 Raffenetti 2 integral format.
 Two-electron integral symmetry is turned on.
 Leave Link  301 at Fri Oct 15 18:33:26 2021, MaxMem=   402653184 cpu:         0.4
 (Enter /aplic/Gaussian/g09d01_prebuilt_iqtc01/g09/l302.exe)
 NPDir=0 NMtPBC=     1 NCelOv=     1 NCel=       1 NClECP=     1 NCelD=      1
         NCelK=      1 NCelE2=     1 NClLst=     1 CellRange=     0.0.
 One-electron integrals computed using PRISM.
 NBasis=   210 RedAO= T EigKep=  1.59D-06  NBF=   158    52
 NBsUse=   210 1.00D-06 EigRej= -1.00D+00 NBFU=   158    52
 Precomputing XC quadrature grid using
 IXCGrd= 4 IRadAn=           0 IRanWt=          -1 IRanGd=           0 AccXCQ= 0.00D+00.
 Generated NRdTot=       0 NPtTot=           0 NUsed=           0 NTot=          32
 NSgBfM=   209   209   209   209   209 MxSgAt=    16 MxSgA2=    16.
 Leave Link  302 at Fri Oct 15 18:33:26 2021, MaxMem=   402653184 cpu:         1.9
 (Enter /aplic/Gaussian/g09d01_prebuilt_iqtc01/g09/l303.exe)
 DipDrv:  MaxL=1.
 Leave Link  303 at Fri Oct 15 18:33:26 2021, MaxMem=   402653184 cpu:         0.4
 (Enter /aplic/Gaussian/g09d01_prebuilt_iqtc01/g09/l401.exe)
 ExpMin= 4.05D-02 ExpMax= 2.19D+04 ExpMxC= 3.30D+03 IAcc=2 IRadAn=         4 AccDes= 0.00D+00
 Harris functional with IExCor=  402 and IRadAn=       4 diagonalized for initial guess.
 HarFok:  IExCor=  402 AccDes= 0.00D+00 IRadAn=         4 IDoV= 1 UseB2=F ITyADJ=14
 ICtDFT=  3500011 ScaDFX=  1.000000  1.000000  1.000000  1.000000
 FoFCou: FMM=F IPFlag=           0 FMFlag=      100000 FMFlg1=           0
         NFxFlg=           0 DoJE=T BraDBF=F KetDBF=T FulRan=T
         wScrn=  0.000000 ICntrl=     500 IOpCl=  0 I1Cent=   200000004 NGrid=           0
         NMat0=    1 NMatS0=      1 NMatT0=    0 NMatD0=    1 NMtDS0=    0 NMtDT0=    0
 Petite list used in FoFCou.
 Harris En= -1104.78172323089    
 JPrj=0 DoOrth=F DoCkMO=F.
 Initial guess orbital symmetries:
       Occupied  (A') (A') (A') (A') (A') (A') (A') (A') (A') (A')
                 (A') (A') (A') (A') (A') (A') (A") (A") (A') (A')
                 (A') (A') (A') (A') (A') (A') (A') (A') (A') (A')
                 (A') (A') (A') (A') (A") (A') (A") (A') (A") (A')
                 (A") (A") (A")
       Virtual   (A") (A") (A") (A') (A') (A") (A') (A') (A') (A')
                 (A') (A') (A') (A") (A') (A') (A") (A') (A") (A')
                 (A") (A') (A") (A') (A') (A') (A') (A') (A") (A")
                 (A') (A') (A") (A') (A') (A') (A') (A") (A') (A')
                 (A") (A') (A') (A') (A') (A') (A') (A') (A') (A')
                 (A') (A') (A') (A') (A') (A') (A') (A') (A') (A')
                 (A') (A') (A') (A") (A") (A') (A') (A') (A') (A")
                 (A") (A") (A") (A') (A') (A") (A') (A") (A') (A")
                 (A") (A') (A') (A') (A") (A") (A') (A") (A') (A')
                 (A') (A') (A') (A') (A') (A') (A") (A') (A') (A')
                 (A') (A') (A') (A') (A') (A') (A') (A') (A') (A')
                 (A") (A') (A") (A") (A') (A') (A") (A") (A') (A')
                 (A") (A') (A') (A") (A") (A') (A") (A') (A') (A')
                 (A') (A') (A") (A') (A') (A") (A') (A') (A") (A')
                 (A") (A') (A') (A') (A") (A') (A") (A") (A') (A')
                 (A') (A') (A') (A') (A') (A') (A') (A') (A') (A')
                 (A') (A') (A') (A') (A') (A') (A')
 The electronic state of the initial guess is 1-A'.
 Leave Link  401 at Fri Oct 15 18:33:29 2021, MaxMem=   402653184 cpu:         7.3
 (Enter /aplic/Gaussian/g09d01_prebuilt_iqtc01/g09/l502.exe)
 Closed shell SCF:
 Using DIIS extrapolation, IDIIS=  1040.
 Integral symmetry usage will be decided dynamically.
 Keep R1 ints in memory in symmetry-blocked form, NReq=376544350.
 IVT=      153744 IEndB=      153744 NGot=   402653184 MDV=   271542135
 LenX=   271542135 LenY=   271497594
 Requested convergence on RMS density matrix=1.00D-08 within 128 cycles.
 Requested convergence on MAX density matrix=1.00D-06.
 Requested convergence on             energy=1.00D-06.
 No special actions if energy rises.
 FoFCou: FMM=F IPFlag=           0 FMFlag=           0 FMFlg1=           0
         NFxFlg=           0 DoJE=F BraDBF=F KetDBF=F FulRan=T
         wScrn=  0.000000 ICntrl=     600 IOpCl=  0 I1Cent=           0 NGrid=           0
         NMat0=    1 NMatS0=  22155 NMatT0=    0 NMatD0=    1 NMtDS0=    0 NMtDT0=    0
 Petite list used in FoFCou.

 Cycle   1  Pass 1  IDiag  1:
 E= -1104.36736736130    
 DIIS: error= 3.89D-02 at cycle   1 NSaved=   1.
 NSaved= 1 IEnMin= 1 EnMin= -1104.36736736130     IErMin= 1 ErrMin= 3.89D-02
 ErrMax= 3.89D-02  0.00D+00 EMaxC= 1.00D-01 BMatC= 4.04D-01 BMatP= 4.04D-01
 IDIUse=3 WtCom= 6.11D-01 WtEn= 3.89D-01
 Coeff-Com:  0.100D+01
 Coeff-En:   0.100D+01
 Coeff:      0.100D+01
 Gap=     0.230 Goal=   None    Shift=    0.000
 GapD=    0.230 DampG=1.000 DampE=0.500 DampFc=0.5000 IDamp=-1.
 Damping current iteration by 5.00D-01
 RMSDP=2.08D-01 MaxDP=1.34D+01              OVMax= 3.45D-01

 Cycle   2  Pass 1  IDiag  1:
 E= -1104.49392898260     Delta-E=       -0.126561621306 Rises=F Damp=T
 DIIS: error= 1.38D-02 at cycle   2 NSaved=   2.
 NSaved= 2 IEnMin= 2 EnMin= -1104.49392898260     IErMin= 2 ErrMin= 1.38D-02
 ErrMax= 1.38D-02  0.00D+00 EMaxC= 1.00D-01 BMatC= 4.29D-02 BMatP= 4.04D-01
 IDIUse=3 WtCom= 8.62D-01 WtEn= 1.38D-01
 Coeff-Com:  0.194D+00 0.806D+00
 Coeff-En:   0.349D+00 0.651D+00
 Coeff:      0.216D+00 0.784D+00
 Gap=     0.194 Goal=   None    Shift=    0.000
 RMSDP=1.46D-01 MaxDP=9.39D+00 DE=-1.27D-01 OVMax= 3.06D-01

 Cycle   3  Pass 1  IDiag  1:
 E= -1104.80244267871     Delta-E=       -0.308513696106 Rises=F Damp=F
 DIIS: error= 7.14D-03 at cycle   3 NSaved=   3.
 NSaved= 3 IEnMin= 3 EnMin= -1104.80244267871     IErMin= 3 ErrMin= 7.14D-03
 ErrMax= 7.14D-03  0.00D+00 EMaxC= 1.00D-01 BMatC= 7.32D-03 BMatP= 4.29D-02
 IDIUse=3 WtCom= 9.29D-01 WtEn= 7.14D-02
 Coeff-Com:  0.520D-01 0.269D+00 0.679D+00
 Coeff-En:   0.000D+00 0.000D+00 0.100D+01
 Coeff:      0.482D-01 0.250D+00 0.702D+00
 Gap=     0.171 Goal=   None    Shift=    0.000
 RMSDP=9.72D-03 MaxDP=5.99D-01 DE=-3.09D-01 OVMax= 5.09D-02

 Cycle   4  Pass 1  IDiag  1:
 E= -1104.80477952136     Delta-E=       -0.002336842650 Rises=F Damp=F
 DIIS: error= 6.08D-03 at cycle   4 NSaved=   4.
 NSaved= 4 IEnMin= 4 EnMin= -1104.80477952136     IErMin= 4 ErrMin= 6.08D-03
 ErrMax= 6.08D-03  0.00D+00 EMaxC= 1.00D-01 BMatC= 5.54D-03 BMatP= 7.32D-03
 IDIUse=3 WtCom= 9.39D-01 WtEn= 6.08D-02
 Coeff-Com:  0.543D-02 0.403D-01 0.459D+00 0.495D+00
 Coeff-En:   0.000D+00 0.000D+00 0.428D+00 0.572D+00
 Coeff:      0.510D-02 0.379D-01 0.457D+00 0.500D+00
 Gap=     0.170 Goal=   None    Shift=    0.000
 RMSDP=3.82D-03 MaxDP=1.99D-01 DE=-2.34D-03 OVMax= 2.83D-02

 Cycle   5  Pass 1  IDiag  1:
 E= -1104.81028758161     Delta-E=       -0.005508060250 Rises=F Damp=F
 DIIS: error= 1.45D-03 at cycle   5 NSaved=   5.
 NSaved= 5 IEnMin= 5 EnMin= -1104.81028758161     IErMin= 5 ErrMin= 1.45D-03
 ErrMax= 1.45D-03  0.00D+00 EMaxC= 1.00D-01 BMatC= 2.43D-04 BMatP= 5.54D-03
 IDIUse=3 WtCom= 9.85D-01 WtEn= 1.45D-02
 Coeff-Com:  0.749D-03-0.154D-02 0.191D+00 0.260D+00 0.549D+00
 Coeff-En:   0.000D+00 0.000D+00 0.000D+00 0.000D+00 0.100D+01
 Coeff:      0.738D-03-0.152D-02 0.189D+00 0.257D+00 0.555D+00
 Gap=     0.171 Goal=   None    Shift=    0.000
 RMSDP=5.97D-04 MaxDP=2.13D-02 DE=-5.51D-03 OVMax= 7.63D-03

 Cycle   6  Pass 1  IDiag  1:
 E= -1104.81046986975     Delta-E=       -0.000182288137 Rises=F Damp=F
 DIIS: error= 7.89D-04 at cycle   6 NSaved=   6.
 NSaved= 6 IEnMin= 6 EnMin= -1104.81046986975     IErMin= 6 ErrMin= 7.89D-04
 ErrMax= 7.89D-04  0.00D+00 EMaxC= 1.00D-01 BMatC= 7.33D-05 BMatP= 2.43D-04
 IDIUse=3 WtCom= 9.92D-01 WtEn= 7.89D-03
 Coeff-Com:  0.312D-03-0.617D-02 0.829D-01 0.125D+00 0.392D+00 0.406D+00
 Coeff-En:   0.000D+00 0.000D+00 0.000D+00 0.000D+00 0.248D+00 0.752D+00
 Coeff:      0.309D-03-0.612D-02 0.823D-01 0.124D+00 0.390D+00 0.409D+00
 Gap=     0.171 Goal=   None    Shift=    0.000
 RMSDP=4.74D-04 MaxDP=3.60D-02 DE=-1.82D-04 OVMax= 2.82D-03

 Cycle   7  Pass 1  IDiag  1:
 E= -1104.81055033463     Delta-E=       -0.000080464880 Rises=F Damp=F
 DIIS: error= 4.87D-05 at cycle   7 NSaved=   7.
 NSaved= 7 IEnMin= 7 EnMin= -1104.81055033463     IErMin= 7 ErrMin= 4.87D-05
 ErrMax= 4.87D-05  0.00D+00 EMaxC= 1.00D-01 BMatC= 5.83D-07 BMatP= 7.33D-05
 IDIUse=1 WtCom= 1.00D+00 WtEn= 0.00D+00
 Coeff-Com:  0.300D-03-0.215D-02 0.118D-01 0.174D-01 0.693D-01 0.106D+00
 Coeff-Com:  0.797D+00
 Coeff:      0.300D-03-0.215D-02 0.118D-01 0.174D-01 0.693D-01 0.106D+00
 Coeff:      0.797D+00
 Gap=     0.171 Goal=   None    Shift=    0.000
 RMSDP=7.82D-05 MaxDP=4.01D-03 DE=-8.05D-05 OVMax= 3.33D-04

 Cycle   8  Pass 1  IDiag  1:
 E= -1104.81055081072     Delta-E=       -0.000000476094 Rises=F Damp=F
 DIIS: error= 3.42D-05 at cycle   8 NSaved=   8.
 NSaved= 8 IEnMin= 8 EnMin= -1104.81055081072     IErMin= 8 ErrMin= 3.42D-05
 ErrMax= 3.42D-05  0.00D+00 EMaxC= 1.00D-01 BMatC= 1.83D-07 BMatP= 5.83D-07
 IDIUse=1 WtCom= 1.00D+00 WtEn= 0.00D+00
 Coeff-Com:  0.178D-03-0.674D-03-0.730D-03-0.171D-02 0.695D-03 0.204D-01
 Coeff-Com:  0.426D+00 0.555D+00
 Coeff:      0.178D-03-0.674D-03-0.730D-03-0.171D-02 0.695D-03 0.204D-01
 Coeff:      0.426D+00 0.555D+00
 Gap=     0.171 Goal=   None    Shift=    0.000
 RMSDP=2.13D-05 MaxDP=1.44D-03 DE=-4.76D-07 OVMax= 1.65D-04

 Cycle   9  Pass 1  IDiag  1:
 E= -1104.81055099254     Delta-E=       -0.000000181816 Rises=F Damp=F
 DIIS: error= 5.46D-06 at cycle   9 NSaved=   9.
 NSaved= 9 IEnMin= 9 EnMin= -1104.81055099254     IErMin= 9 ErrMin= 5.46D-06
 ErrMax= 5.46D-06  0.00D+00 EMaxC= 1.00D-01 BMatC= 5.31D-09 BMatP= 1.83D-07
 IDIUse=1 WtCom= 1.00D+00 WtEn= 0.00D+00
 Coeff-Com:  0.414D-04-0.501D-04-0.103D-02-0.181D-02-0.600D-02-0.233D-02
 Coeff-Com:  0.450D-01 0.165D+00 0.801D+00
 Coeff:      0.414D-04-0.501D-04-0.103D-02-0.181D-02-0.600D-02-0.233D-02
 Coeff:      0.450D-01 0.165D+00 0.801D+00
 Gap=     0.171 Goal=   None    Shift=    0.000
 RMSDP=6.50D-06 MaxDP=3.92D-04 DE=-1.82D-07 OVMax= 2.39D-05

 Cycle  10  Pass 1  IDiag  1:
 E= -1104.81055099856     Delta-E=       -0.000000006028 Rises=F Damp=F
 DIIS: error= 5.90D-07 at cycle  10 NSaved=  10.
 NSaved=10 IEnMin=10 EnMin= -1104.81055099856     IErMin=10 ErrMin= 5.90D-07
 ErrMax= 5.90D-07  0.00D+00 EMaxC= 1.00D-01 BMatC= 1.04D-10 BMatP= 5.31D-09
 IDIUse=1 WtCom= 1.00D+00 WtEn= 0.00D+00
 Coeff-Com:  0.453D-05 0.837D-05-0.209D-03-0.353D-03-0.140D-02-0.119D-02
 Coeff-Com: -0.558D-02 0.197D-01 0.172D+00 0.817D+00
 Coeff:      0.453D-05 0.837D-05-0.209D-03-0.353D-03-0.140D-02-0.119D-02
 Coeff:     -0.558D-02 0.197D-01 0.172D+00 0.817D+00
 Gap=     0.171 Goal=   None    Shift=    0.000
 RMSDP=5.69D-07 MaxDP=1.45D-05 DE=-6.03D-09 OVMax= 5.43D-06

 Cycle  11  Pass 1  IDiag  1:
 E= -1104.81055099867     Delta-E=       -0.000000000105 Rises=F Damp=F
 DIIS: error= 2.49D-07 at cycle  11 NSaved=  11.
 NSaved=11 IEnMin=11 EnMin= -1104.81055099867     IErMin=11 ErrMin= 2.49D-07
 ErrMax= 2.49D-07  0.00D+00 EMaxC= 1.00D-01 BMatC= 1.94D-11 BMatP= 1.04D-10
 IDIUse=1 WtCom= 1.00D+00 WtEn= 0.00D+00
 Coeff-Com: -0.895D-06 0.681D-05-0.289D-06 0.211D-05-0.108D-03-0.309D-03
 Coeff-Com: -0.456D-02-0.259D-02 0.138D-01 0.328D+00 0.666D+00
 Coeff:     -0.895D-06 0.681D-05-0.289D-06 0.211D-05-0.108D-03-0.309D-03
 Coeff:     -0.456D-02-0.259D-02 0.138D-01 0.328D+00 0.666D+00
 Gap=     0.171 Goal=   None    Shift=    0.000
 RMSDP=2.47D-07 MaxDP=1.71D-05 DE=-1.05D-10 OVMax= 2.36D-06

 Cycle  12  Pass 1  IDiag  1:
 E= -1104.81055099871     Delta-E=       -0.000000000039 Rises=F Damp=F
 DIIS: error= 4.84D-08 at cycle  12 NSaved=  12.
 NSaved=12 IEnMin=12 EnMin= -1104.81055099871     IErMin=12 ErrMin= 4.84D-08
 ErrMax= 4.84D-08  0.00D+00 EMaxC= 1.00D-01 BMatC= 5.43D-13 BMatP= 1.94D-11
 IDIUse=1 WtCom= 1.00D+00 WtEn= 0.00D+00
 Coeff-Com: -0.437D-06 0.100D-05 0.973D-05 0.199D-04 0.456D-04-0.265D-04
 Coeff-Com: -0.893D-03-0.196D-02-0.704D-02 0.271D-01 0.168D+00 0.814D+00
 Coeff:     -0.437D-06 0.100D-05 0.973D-05 0.199D-04 0.456D-04-0.265D-04
 Coeff:     -0.893D-03-0.196D-02-0.704D-02 0.271D-01 0.168D+00 0.814D+00
 Gap=     0.171 Goal=   None    Shift=    0.000
 RMSDP=4.22D-08 MaxDP=1.34D-06 DE=-3.93D-11 OVMax= 3.75D-07

 Cycle  13  Pass 1  IDiag  1:
 E= -1104.81055099867     Delta-E=        0.000000000036 Rises=F Damp=F
 DIIS: error= 2.46D-08 at cycle  13 NSaved=  13.
 NSaved=13 IEnMin=12 EnMin= -1104.81055099871     IErMin=13 ErrMin= 2.46D-08
 ErrMax= 2.46D-08  0.00D+00 EMaxC= 1.00D-01 BMatC= 1.10D-13 BMatP= 5.43D-13
 IDIUse=1 WtCom= 1.00D+00 WtEn= 0.00D+00
 Coeff-Com: -0.228D-06 0.394D-06 0.538D-05 0.112D-04 0.280D-04-0.818D-05
 Coeff-Com: -0.395D-03-0.104D-02-0.445D-02 0.641D-02 0.792D-01 0.466D+00
 Coeff-Com:  0.455D+00
 Coeff:     -0.228D-06 0.394D-06 0.538D-05 0.112D-04 0.280D-04-0.818D-05
 Coeff:     -0.395D-03-0.104D-02-0.445D-02 0.641D-02 0.792D-01 0.466D+00
 Coeff:      0.455D+00
 Gap=     0.171 Goal=   None    Shift=    0.000
 RMSDP=1.97D-08 MaxDP=1.62D-06 DE= 3.59D-11 OVMax= 1.74D-07

 Cycle  14  Pass 1  IDiag  1:
 E= -1104.81055099869     Delta-E=       -0.000000000022 Rises=F Damp=F
 DIIS: error= 7.75D-09 at cycle  14 NSaved=  14.
 NSaved=14 IEnMin=12 EnMin= -1104.81055099871     IErMin=14 ErrMin= 7.75D-09
 ErrMax= 7.75D-09  0.00D+00 EMaxC= 1.00D-01 BMatC= 1.12D-14 BMatP= 1.10D-13
 IDIUse=1 WtCom= 1.00D+00 WtEn= 0.00D+00
 Coeff-Com: -0.251D-07-0.824D-08 0.551D-06 0.149D-05 0.401D-05 0.107D-05
 Coeff-Com: -0.779D-05-0.972D-04-0.806D-03-0.291D-02 0.426D-02 0.638D-01
 Coeff-Com:  0.250D+00 0.686D+00
 Coeff:     -0.251D-07-0.824D-08 0.551D-06 0.149D-05 0.401D-05 0.107D-05
 Coeff:     -0.779D-05-0.972D-04-0.806D-03-0.291D-02 0.426D-02 0.638D-01
 Coeff:      0.250D+00 0.686D+00
 Gap=     0.171 Goal=   None    Shift=    0.000
 RMSDP=3.94D-09 MaxDP=1.67D-07 DE=-2.23D-11 OVMax= 4.35D-08

 SCF Done:  E(RB3LYP) =  -1104.81055100     A.U. after   14 cycles
            NFock= 14  Conv=0.39D-08     -V/T= 2.0045
 KE= 1.099859032805D+03 PE=-3.882734901084D+03 EE= 1.039656212383D+03
 Leave Link  502 at Fri Oct 15 18:34:24 2021, MaxMem=   402653184 cpu:       175.6
 (Enter /aplic/Gaussian/g09d01_prebuilt_iqtc01/g09/l601.exe)
 Copying SCF densities to generalized density rwf, IOpCl= 0 IROHF=0.

 **********************************************************************

            Population analysis using the SCF density.

 **********************************************************************

 Orbital symmetries:
       Occupied  (A') (A') (A') (A') (A') (A') (A') (A') (A') (A')
                 (A') (A') (A') (A') (A') (A') (A") (A") (A') (A')
                 (A') (A') (A') (A') (A') (A') (A') (A') (A') (A')
                 (A') (A') (A") (A') (A') (A") (A') (A') (A') (A")
                 (A") (A") (A")
       Virtual   (A") (A') (A') (A") (A') (A') (A') (A') (A') (A')
                 (A") (A') (A") (A") (A') (A") (A') (A") (A') (A')
                 (A') (A") (A") (A') (A') (A') (A') (A") (A") (A')
                 (A') (A') (A") (A') (A') (A") (A') (A") (A') (A')
                 (A') (A') (A') (A') (A') (A') (A') (A') (A') (A')
                 (A') (A') (A') (A') (A') (A') (A') (A') (A') (A')
                 (A') (A") (A") (A') (A') (A') (A') (A') (A') (A")
                 (A") (A') (A") (A") (A') (A") (A') (A") (A') (A")
                 (A") (A') (A") (A') (A") (A') (A") (A') (A') (A')
                 (A') (A') (A') (A') (A") (A') (A') (A') (A') (A')
                 (A') (A') (A') (A') (A') (A') (A') (A') (A') (A')
                 (A') (A") (A') (A") (A') (A") (A') (A") (A") (A')
                 (A") (A') (A') (A") (A") (A') (A") (A') (A') (A')
                 (A') (A") (A') (A') (A') (A') (A") (A') (A") (A')
                 (A') (A") (A') (A') (A") (A') (A") (A") (A') (A')
                 (A') (A') (A') (A') (A') (A') (A') (A') (A') (A')
                 (A') (A') (A') (A') (A') (A') (A')
 The electronic state is 1-A'.
 Alpha  occ. eigenvalues --  -88.92007 -88.92002 -10.22782 -10.22748 -10.21789
 Alpha  occ. eigenvalues --  -10.21781 -10.19528 -10.19528 -10.19021 -10.19011
 Alpha  occ. eigenvalues --   -7.98023  -7.98018  -5.94463  -5.94458  -5.94077
 Alpha  occ. eigenvalues --   -5.94072  -5.93694  -5.93690  -0.91471  -0.89137
 Alpha  occ. eigenvalues --   -0.78079  -0.75391  -0.73776  -0.71782  -0.60588
 Alpha  occ. eigenvalues --   -0.58454  -0.54736  -0.53722  -0.53402  -0.48717
 Alpha  occ. eigenvalues --   -0.42307  -0.42207  -0.41627  -0.40433  -0.40208
 Alpha  occ. eigenvalues --   -0.38098  -0.37619  -0.35939  -0.34435  -0.28834
 Alpha  occ. eigenvalues --   -0.26427  -0.25616  -0.21823
 Alpha virt. eigenvalues --   -0.04724   0.00201   0.00220   0.00807   0.01496
 Alpha virt. eigenvalues --    0.01580   0.02716   0.03045   0.03544   0.04469
 Alpha virt. eigenvalues --    0.04741   0.05075   0.05525   0.05596   0.06373
 Alpha virt. eigenvalues --    0.07428   0.07599   0.08300   0.09466   0.09634
 Alpha virt. eigenvalues --    0.09846   0.10214   0.11374   0.12898   0.13534
 Alpha virt. eigenvalues --    0.14646   0.14812   0.14885   0.15135   0.15216
 Alpha virt. eigenvalues --    0.16251   0.17309   0.17354   0.17815   0.19121
 Alpha virt. eigenvalues --    0.19419   0.19468   0.19614   0.20008   0.20679
 Alpha virt. eigenvalues --    0.20787   0.21147   0.22898   0.23079   0.23927
 Alpha virt. eigenvalues --    0.25197   0.25366   0.26891   0.27525   0.28658
 Alpha virt. eigenvalues --    0.29463   0.31510   0.31700   0.33033   0.33277
 Alpha virt. eigenvalues --    0.35676   0.37145   0.39502   0.42135   0.47799
 Alpha virt. eigenvalues --    0.49193   0.50355   0.50805   0.54257   0.55929
 Alpha virt. eigenvalues --    0.58121   0.59597   0.60905   0.62985   0.64647
 Alpha virt. eigenvalues --    0.64917   0.65293   0.65818   0.65830   0.68112
 Alpha virt. eigenvalues --    0.71796   0.72187   0.72465   0.72540   0.74112
 Alpha virt. eigenvalues --    0.74214   0.78097   0.80816   0.80874   0.82292
 Alpha virt. eigenvalues --    0.82957   0.85332   0.88264   0.90170   0.91087
 Alpha virt. eigenvalues --    0.92720   0.92750   0.94095   0.95828   0.97035
 Alpha virt. eigenvalues --    0.98535   0.99590   1.00320   1.02012   1.02993
 Alpha virt. eigenvalues --    1.04544   1.07393   1.10554   1.11325   1.12851
 Alpha virt. eigenvalues --    1.16567   1.18346   1.18524   1.24360   1.25500
 Alpha virt. eigenvalues --    1.30030   1.31843   1.35684   1.36464   1.37360
 Alpha virt. eigenvalues --    1.39291   1.44760   1.44871   1.45940   1.48473
 Alpha virt. eigenvalues --    1.52985   1.58708   1.61399   1.69027   1.77292
 Alpha virt. eigenvalues --    1.81713   1.81825   1.88115   1.92361   1.98208
 Alpha virt. eigenvalues --    1.99461   2.03676   2.05754   2.06219   2.16027
 Alpha virt. eigenvalues --    2.22609   2.25086   2.25569   2.26753   2.27892
 Alpha virt. eigenvalues --    2.28983   2.30457   2.38600   2.38632   2.40809
 Alpha virt. eigenvalues --    2.48597   2.49313   2.52228   2.65096   2.68090
 Alpha virt. eigenvalues --    2.68846   2.77255   2.86756   2.90404   2.99022
 Alpha virt. eigenvalues --    3.14146   3.14176   3.96147   3.98088   4.22181
 Alpha virt. eigenvalues --    4.27040   4.27411   4.28470   4.32606   4.44334
 Alpha virt. eigenvalues --    4.47649   4.59465
          Condensed to atoms (all electrons):
               1          2          3          4          5          6
     1  C   14.127389  -4.272198   1.159159  -1.324109  -8.541717   5.736085
     2  C   -4.272198   8.557564  -0.353560   0.410756   3.351513  -1.771841
     3  C    1.159159  -0.353560   5.796882   0.096606  -0.969029   0.343764
     4  S   -1.324109   0.410756   0.096606  15.971218   1.537718  -0.967733
     5  C   -8.541717   3.351513  -0.969029   1.537718  26.154460 -18.663497
     6  C    5.736085  -1.771841   0.343764  -0.967733 -18.663497  26.133895
     7  S    0.333274  -0.159912   0.041528   0.031422  -0.971930   1.539741
     8  C   -0.212047  -0.008008  -0.006824   0.041283   0.342985  -0.964655
     9  C    0.559907  -0.000948  -0.007964  -0.159076  -1.767177   3.338672
    10  C   -2.230084   0.561110  -0.212387   0.330894   5.729264  -8.520214
    11  H    0.281277  -0.051847  -0.000183   0.021757   0.023428  -0.019599
    12  H   -0.067333   0.344581  -0.005161   0.019267   0.056320  -0.060461
    13  H    0.064611  -0.050833   0.363983  -0.029340  -0.022556  -0.010891
    14  H   -0.002195   0.000335  -0.000126   0.000175  -0.010889  -0.022418
    15  H    0.003059  -0.000009  -0.000058  -0.001023  -0.060244   0.054798
    16  H   -0.016668  -0.003012   0.003398   0.033856  -0.019814   0.023921
               7          8          9         10         11         12
     1  C    0.333274  -0.212047   0.559907  -2.230084   0.281277  -0.067333
     2  C   -0.159912  -0.008008  -0.000948   0.561110  -0.051847   0.344581
     3  C    0.041528  -0.006824  -0.007964  -0.212387  -0.000183  -0.005161
     4  S    0.031422   0.041283  -0.159076   0.330894   0.021757   0.019267
     5  C   -0.971930   0.342985  -1.767177   5.729264   0.023428   0.056320
     6  C    1.539741  -0.964655   3.338672  -8.520214  -0.019599  -0.060461
     7  S   15.972815   0.096959   0.410440  -1.324950   0.033902  -0.001056
     8  C    0.096959   5.793424  -0.350129   1.153304   0.003397  -0.000058
     9  C    0.410440  -0.350129   8.540802  -4.248117  -0.003029  -0.000012
    10  C   -1.324950   1.153304  -4.248117  14.095289  -0.016682   0.003107
    11  H    0.033902   0.003397  -0.003029  -0.016682   0.545973  -0.002788
    12  H   -0.001056  -0.000058  -0.000012   0.003107  -0.002788   0.530370
    13  H    0.000175  -0.000126   0.000334  -0.002195  -0.000126  -0.003935
    14  H   -0.029376   0.363833  -0.050555   0.064359  -0.000001   0.000000
    15  H    0.019291  -0.004397   0.342966  -0.065129   0.000000   0.000000
    16  H    0.021817  -0.000285  -0.051874   0.281118  -0.000003   0.000000
              13         14         15         16
     1  C    0.064611  -0.002195   0.003059  -0.016668
     2  C   -0.050833   0.000335  -0.000009  -0.003012
     3  C    0.363983  -0.000126  -0.000058   0.003398
     4  S   -0.029340   0.000175  -0.001023   0.033856
     5  C   -0.022556  -0.010889  -0.060244  -0.019814
     6  C   -0.010891  -0.022418   0.054798   0.023921
     7  S    0.000175  -0.029376   0.019291   0.021817
     8  C   -0.000126   0.363833  -0.004397  -0.000285
     9  C    0.000334  -0.050555   0.342966  -0.051874
    10  C   -0.002195   0.064359  -0.065129   0.281118
    11  H   -0.000126  -0.000001   0.000000  -0.000003
    12  H   -0.003935   0.000000   0.000000   0.000000
    13  H    0.477652   0.000000   0.000000  -0.000001
    14  H    0.000000   0.477852  -0.004002  -0.000126
    15  H    0.000000  -0.004002   0.530206  -0.002741
    16  H   -0.000001  -0.000126  -0.002741   0.545833
 Mulliken charges:
               1
     1  C    0.401591
     2  C   -0.553691
     3  C   -0.250027
     4  S   -0.013670
     5  C   -0.168836
     6  C   -0.169568
     7  S   -0.014140
     8  C   -0.248658
     9  C   -0.554240
    10  C    0.401312
    11  H    0.184522
    12  H    0.187159
    13  H    0.213248
    14  H    0.213134
    15  H    0.187283
    16  H    0.184581
 Sum of Mulliken charges =   0.00000
 Mulliken charges with hydrogens summed into heavy atoms:
               1
     1  C    0.586114
     2  C   -0.366532
     3  C   -0.036779
     4  S   -0.013670
     5  C   -0.168836
     6  C   -0.169568
     7  S   -0.014140
     8  C   -0.035523
     9  C   -0.366957
    10  C    0.585892
 Electronic spatial extent (au):  <R**2>=           1983.4360
 Charge=              0.0000 electrons
 Dipole moment (field-independent basis, Debye):
    X=             -0.0011    Y=              0.0024    Z=              0.0000  Tot=              0.0027
 Quadrupole moment (field-independent basis, Debye-Ang):
   XX=            -68.3425   YY=            -61.2761   ZZ=            -78.2365
   XY=              2.5846   XZ=              0.0000   YZ=              0.0000
 Traceless Quadrupole moment (field-independent basis, Debye-Ang):
   XX=              0.9425   YY=              8.0089   ZZ=             -8.9515
   XY=              2.5846   XZ=              0.0000   YZ=              0.0000
 Octapole moment (field-independent basis, Debye-Ang**2):
  XXX=             -0.0505  YYY=              0.1427  ZZZ=              0.0000  XYY=              0.0454
  XXY=             -0.0268  XXZ=              0.0000  XZZ=             -0.0003  YZZ=             -0.0010
  YYZ=              0.0000  XYZ=              0.0000
 Hexadecapole moment (field-independent basis, Debye-Ang**3):
 XXXX=           -546.8508 YYYY=          -1830.9296 ZZZZ=           -101.2401 XXXY=            -11.0301
 XXXZ=              0.0000 YYYX=            -32.1748 YYYZ=              0.0000 ZZZX=              0.0000
 ZZZY=              0.0000 XXYY=           -423.9166 XXZZ=           -123.4096 YYZZ=           -414.7404
 XXYZ=              0.0000 YYXZ=              0.0000 ZZXY=            -19.9780
 N-N= 6.384091048976D+02 E-N=-3.882734901350D+03  KE= 1.099859032805D+03
 Symmetry A'   KE= 1.014154283742D+03
 Symmetry A"   KE= 8.570474906237D+01
 No NMR shielding tensors so no spin-rotation constants.
 Leave Link  601 at Fri Oct 15 18:34:24 2021, MaxMem=   402653184 cpu:         1.4
 (Enter /aplic/Gaussian/g09d01_prebuilt_iqtc01/g09/l701.exe)
 Compute integral first derivatives.
 ... and contract with generalized density number  0.
 Leave Link  701 at Fri Oct 15 18:34:25 2021, MaxMem=   402653184 cpu:         1.1
 (Enter /aplic/Gaussian/g09d01_prebuilt_iqtc01/g09/l702.exe)
 L702 exits ... SP integral derivatives will be done elsewhere.
 Leave Link  702 at Fri Oct 15 18:34:25 2021, MaxMem=   402653184 cpu:         0.2
 (Enter /aplic/Gaussian/g09d01_prebuilt_iqtc01/g09/l703.exe)
 Compute integral first derivatives, UseDBF=F ICtDFT=           0.
 Integral derivatives from FoFJK, PRISM(SPDF).
 Calling FoFJK, ICntrl=      2127 FMM=F ISym2X=1 I1Cent= 0 IOpClX= 0 NMat=1 NMatS=1 NMatT=0.
 FoFJK:  IHMeth= 1 ICntrl=    2127 DoSepK=F KAlg= 0 I1Cent=   0 FoldK=F
 IRaf=         0 NMat=   1 IRICut=       1 DoRegI=T DoRafI=F ISym2E= 1.
 FoFCou: FMM=F IPFlag=           0 FMFlag=      100000 FMFlg1=         800
         NFxFlg=           0 DoJE=F BraDBF=F KetDBF=F FulRan=T
         wScrn=  0.000000 ICntrl=    2127 IOpCl=  0 I1Cent=           0 NGrid=           0
         NMat0=    1 NMatS0=      1 NMatT0=    0 NMatD0=    1 NMtDS0=    0 NMtDT0=    0
 Petite list used in FoFCou.
 Leave Link  703 at Fri Oct 15 18:34:51 2021, MaxMem=   402653184 cpu:        92.4
 (Enter /aplic/Gaussian/g09d01_prebuilt_iqtc01/g09/l716.exe)
 Dipole        =-4.50750286D-04 9.58521220D-04-1.41967211D-32
 ***** Axes restored to original set *****
 -------------------------------------------------------------------
 Center     Atomic                   Forces (Hartrees/Bohr)
 Number     Number              X              Y              Z
 -------------------------------------------------------------------
      1        6          -0.048289767    0.000000000    0.040003402
      2        6          -0.022561484    0.000000000   -0.017655737
      3        6           0.003757575    0.000000000    0.010196963
      4       16           0.026193884    0.000000000    0.004451593
      5        6           0.012667887    0.000000000   -0.042388725
      6        6          -0.012657619    0.000000000    0.042300328
      7       16          -0.026263349    0.000000000   -0.004444516
      8        6          -0.004041581    0.000000000   -0.009942367
      9        6           0.022148476    0.000000000    0.016999672
     10        6           0.048651157    0.000000000   -0.040123416
     11        1          -0.009890069    0.000000000   -0.005166612
     12        1          -0.008906143    0.000000000    0.006864729
     13        1           0.014132219    0.000000000    0.007002327
     14        1          -0.014116517    0.000000000   -0.006994955
     15        1           0.009292274    0.000000000   -0.006285978
     16        1           0.009883057    0.000000000    0.005183294
 -------------------------------------------------------------------
 Cartesian Forces:  Max     0.048651157 RMS     0.018293410
 Leave Link  716 at Fri Oct 15 18:34:51 2021, MaxMem=   402653184 cpu:         0.3
 (Enter /aplic/Gaussian/g09d01_prebuilt_iqtc01/g09/l103.exe)

 GradGradGradGradGradGradGradGradGradGradGradGradGradGradGradGradGradGrad
 Berny optimization.
 FormGI is forming the generalized inverse of G from B-inverse, IUseBI=4.
 Internal  Forces:  Max     0.068149544 RMS     0.014277254
 Search for a local minimum.
 Step number   1 out of a maximum of   89
 All quantities printed in internal units (Hartrees-Bohrs-Radians)
 RMS Force = .14277D-01 SwitMx=.10000D-02 MixMth= 1
 Mixed Optimization -- RFO/linear search
 Second derivative matrix not updated -- first step.
 ITU=  0
     Eigenvalues ---    0.01295   0.01885   0.01885   0.01945   0.01945
     Eigenvalues ---    0.02143   0.02145   0.02365   0.02367   0.02480
     Eigenvalues ---    0.02480   0.02674   0.02674   0.16000   0.16000
     Eigenvalues ---    0.16000   0.16000   0.16000   0.16000   0.22132
     Eigenvalues ---    0.22132   0.23807   0.23807   0.25000   0.25000
     Eigenvalues ---    0.32591   0.32591   0.32728   0.32728   0.36964
     Eigenvalues ---    0.37230   0.37230   0.37230   0.37230   0.37230
     Eigenvalues ---    0.37230   0.39867   0.39867   0.53858   0.53858
     Eigenvalues ---    0.60092   0.60092
 RFO step:  Lambda=-3.32518753D-02 EMin= 1.29507076D-02
 Linear search not attempted -- first point.
 Iteration  1 RMS(Cart)=  0.06866575 RMS(Int)=  0.00136387
 Iteration  2 RMS(Cart)=  0.00192496 RMS(Int)=  0.00003468
 Iteration  3 RMS(Cart)=  0.00000157 RMS(Int)=  0.00003467
 Iteration  4 RMS(Cart)=  0.00000000 RMS(Int)=  0.00003467
 ITry= 1 IFail=0 DXMaxC= 2.19D-01 DCOld= 1.00D+10 DXMaxT= 3.00D-01 DXLimC= 3.00D+00 Rises=F
 ClnCor:  largest displacement from symmetrization is 1.08D-10 for atom     8.
 Variable       Old X    -DE/DX   Delta X   Delta X   Delta X     New X
                                 (Linear)    (Quad)   (Total)
    R1        2.70231   0.00167   0.00000   0.00685   0.00686   2.70917
    R2        2.49180   0.06813   0.00000   0.10724   0.10730   2.59910
    R3        2.02201   0.01110   0.00000   0.02737   0.02737   2.04938
    R4        2.53223   0.03358   0.00000   0.05355   0.05350   2.58573
    R5        2.02201   0.01122   0.00000   0.02766   0.02766   2.04966
    R6        3.25033   0.01260   0.00000   0.02804   0.02799   3.27832
    R7        2.02201   0.00922   0.00000   0.02273   0.02273   2.04473
    R8        3.25033   0.01561   0.00000   0.04315   0.04319   3.29352
    R9        2.75900   0.00797   0.00000   0.01977   0.01977   2.77877
   R10        3.25033   0.01562   0.00000   0.04319   0.04322   3.29355
   R11        2.49180   0.06815   0.00000   0.10726   0.10732   2.59912
   R12        3.25033   0.01259   0.00000   0.02803   0.02798   3.27831
   R13        2.53223   0.03375   0.00000   0.05384   0.05379   2.58602
   R14        2.02201   0.00921   0.00000   0.02270   0.02270   2.04471
   R15        2.70231   0.00151   0.00000   0.00649   0.00650   2.70880
   R16        2.02201   0.01122   0.00000   0.02766   0.02766   2.04967
   R17        2.02201   0.01110   0.00000   0.02738   0.02738   2.04938
    A1        1.97706  -0.00303   0.00000   0.00174   0.00181   1.97887
    A2        2.15548   0.00035   0.00000  -0.00689  -0.00692   2.14856
    A3        2.15065   0.00268   0.00000   0.00515   0.00511   2.15576
    A4        1.96524  -0.00222   0.00000  -0.00810  -0.00814   1.95710
    A5        2.15548   0.00193   0.00000   0.00828   0.00830   2.16378
    A6        2.16246   0.00030   0.00000  -0.00017  -0.00015   2.16231
    A7        1.93732   0.00775   0.00000   0.01821   0.01811   1.95542
    A8        2.12930   0.00906   0.00000   0.05785   0.05790   2.18720
    A9        2.21657  -0.01681   0.00000  -0.07605  -0.07601   2.14056
   A10        1.59872   0.00388   0.00000   0.00150   0.00148   1.60020
   A11        1.94644  -0.00638   0.00000  -0.01335  -0.01325   1.93319
   A12        2.12017   0.02533   0.00000   0.08485   0.08480   2.20497
   A13        2.21657  -0.01895   0.00000  -0.07150  -0.07155   2.14502
   A14        2.21657  -0.01899   0.00000  -0.07160  -0.07164   2.14492
   A15        2.12017   0.02527   0.00000   0.08466   0.08461   2.20478
   A16        1.94644  -0.00629   0.00000  -0.01306  -0.01296   1.93348
   A17        1.59872   0.00381   0.00000   0.00124   0.00122   1.59994
   A18        1.93732   0.00777   0.00000   0.01832   0.01822   1.95554
   A19        2.21657  -0.01681   0.00000  -0.07603  -0.07599   2.14058
   A20        2.12930   0.00904   0.00000   0.05772   0.05777   2.18707
   A21        1.96524  -0.00223   0.00000  -0.00810  -0.00814   1.95710
   A22        2.15548   0.00108   0.00000   0.00388   0.00390   2.15938
   A23        2.16246   0.00115   0.00000   0.00423   0.00425   2.16671
   A24        1.97706  -0.00306   0.00000   0.00160   0.00167   1.97873
   A25        2.15065   0.00268   0.00000   0.00512   0.00509   2.15573
   A26        2.15548   0.00039   0.00000  -0.00672  -0.00676   2.14872
    D1        0.00000   0.00000   0.00000   0.00000   0.00000   0.00000
    D2        3.14159   0.00000   0.00000   0.00000   0.00000   3.14159
    D3        3.14159   0.00000   0.00000   0.00000   0.00000   3.14159
    D4        0.00000   0.00000   0.00000   0.00000   0.00000   0.00000
    D5        0.00000   0.00000   0.00000   0.00000   0.00000   0.00000
    D6        3.14159   0.00000   0.00000   0.00000   0.00000   3.14159
    D7        3.14159   0.00000   0.00000   0.00000   0.00000   3.14159
    D8        0.00000   0.00000   0.00000   0.00000   0.00000   0.00000
    D9        0.00000   0.00000   0.00000   0.00000   0.00000   0.00000
   D10        3.14159   0.00000   0.00000   0.00000   0.00000   3.14159
   D11        3.14159   0.00000   0.00000   0.00000   0.00000   3.14159
   D12        0.00000   0.00000   0.00000   0.00000   0.00000   0.00000
   D13        0.00000   0.00000   0.00000   0.00000   0.00000   0.00000
   D14        3.14159   0.00000   0.00000   0.00000   0.00000   3.14159
   D15        0.00000   0.00000   0.00000   0.00000   0.00000   0.00000
   D16        3.14159   0.00000   0.00000   0.00000   0.00000   3.14159
   D17        0.00000   0.00000   0.00000   0.00000   0.00000   0.00000
   D18        3.14159   0.00000   0.00000   0.00000   0.00000   3.14159
   D19        3.14159   0.00000   0.00000   0.00000   0.00000   3.14159
   D20        0.00000   0.00000   0.00000   0.00000   0.00000   0.00000
   D21        3.14159   0.00000   0.00000   0.00000   0.00000   3.14159
   D22        0.00000   0.00000   0.00000   0.00000   0.00000   0.00000
   D23        3.14159   0.00000   0.00000   0.00000   0.00000   3.14159
   D24        0.00000   0.00000   0.00000   0.00000   0.00000   0.00000
   D25        0.00000   0.00000   0.00000   0.00000   0.00000   0.00000
   D26        3.14159   0.00000   0.00000   0.00000   0.00000   3.14159
   D27        0.00000   0.00000   0.00000   0.00000   0.00000   0.00000
   D28        3.14159   0.00000   0.00000   0.00000   0.00000   3.14159
   D29        0.00000   0.00000   0.00000   0.00000   0.00000   0.00000
   D30        3.14159   0.00000   0.00000   0.00000   0.00000   3.14159
   D31        3.14159   0.00000   0.00000   0.00000   0.00000   3.14159
   D32        0.00000   0.00000   0.00000   0.00000   0.00000   0.00000
   D33        0.00000   0.00000   0.00000   0.00000   0.00000   0.00000
   D34        3.14159   0.00000   0.00000   0.00000   0.00000   3.14159
   D35        3.14159   0.00000   0.00000   0.00000   0.00000   3.14159
   D36        0.00000   0.00000   0.00000   0.00000   0.00000   0.00000
         Item               Value     Threshold  Converged?
 Maximum Force            0.068150     0.000450     NO 
 RMS     Force            0.014277     0.000300     NO 
 Maximum Displacement     0.218707     0.001800     NO 
 RMS     Displacement     0.068207     0.001200     NO 
 Predicted change in Energy=-1.800039D-02
 Lowest energy point so far.  Saving SCF results.
 GradGradGradGradGradGradGradGradGradGradGradGradGradGradGradGradGradGrad

 Leave Link  103 at Fri Oct 15 18:34:52 2021, MaxMem=   402653184 cpu:         3.6
 (Enter /aplic/Gaussian/g09d01_prebuilt_iqtc01/g09/l202.exe)
                          Input orientation:                          
 ---------------------------------------------------------------------
 Center     Atomic      Atomic             Coordinates (Angstroms)
 Number     Number       Type             X           Y           Z
 ---------------------------------------------------------------------
      1          6           0       -0.088945    0.000000    0.044016
      2          6           0       -0.062944    0.000000    1.477410
      3          6           0        1.213674    0.000000    1.969867
      4         16           0        2.399727    0.000000    0.703832
      5          6           0        1.163398    0.000000   -0.524596
      6          6           0        1.467010    0.000000   -1.963372
      7         16           0        0.230550    0.000000   -3.191694
      8          6           0        1.416809    0.000000   -4.457531
      9          6           0        2.693545    0.000000   -3.964952
     10          6           0        2.719469    0.000000   -2.531749
     11          1           0       -1.007993    0.000000   -0.531704
     12          1           0       -0.951266    0.000000    2.099757
     13          1           0        1.479525    0.000000    3.018725
     14          1           0        1.151154    0.000000   -5.506426
     15          1           0        3.580074    0.000000   -4.589858
     16          1           0        3.638398    0.000000   -1.955831
 ---------------------------------------------------------------------
                    Distance matrix (angstroms):
                    1          2          3          4          5
     1  C    0.000000
     2  C    1.433630   0.000000
     3  C    2.325020   1.368309   0.000000
     4  S    2.574654   2.581312   1.734810   0.000000
     5  C    1.375384   2.347752   2.494969   1.742855   0.000000
     6  C    2.539803   3.765599   3.941389   2.825586   1.470462
     7  S    3.251445   4.678319   5.254355   4.458750   2.825529
     8  C    4.746706   6.116632   6.430608   5.254122   3.941091
     9  C    4.879966   6.100617   6.116543   4.678020   3.765289
    10  C    3.810742   4.880080   4.746785   3.251341   2.539689
    11  H    1.084483   2.220283   3.345693   3.624790   2.171402
    12  H    2.229276   1.084635   2.168834   3.630119   3.370316
    13  H    3.362884   2.180565   1.082026   2.491085   3.557395
    14  H    5.687288   7.088582   7.476554   6.334527   4.981845
    15  H    5.910540   7.076957   6.973510   5.423686   4.729342
    16  H    4.229949   5.048472   4.614151   2.933958   2.859031
                    6          7          8          9         10
     6  C    0.000000
     7  S    1.742873   0.000000
     8  C    2.494665   1.734806   0.000000
     9  C    2.347490   2.581524   1.368462   0.000000
    10  C    1.375394   2.574926   2.324987   1.433437   0.000000
    11  H    2.859250   2.934201   4.614302   5.048620   4.230148
    12  H    4.728327   5.421821   6.971787   7.075687   5.909750
    13  H    4.982113   6.334764   7.476520   7.088412   5.687286
    14  H    3.557105   2.491083   1.082013   2.180622   3.362784
    15  H    3.370975   3.629624   2.167309   1.084639   2.230796
    16  H    2.171402   3.625022   3.345739   2.220207   1.084487
                   11         12         13         14         15
    11  H    0.000000
    12  H    2.632073   0.000000
    13  H    4.335123   2.598701   0.000000
    14  H    5.423077   7.891399   8.531472   0.000000
    15  H    6.125273   8.079851   7.893215   2.596103   0.000000
    16  H    4.859741   6.124770   5.422816   4.335102   2.634673
                   16
    16  H    0.000000
 Stoichiometry    C8H6S2
 Framework group  CS[SG(C8H6S2)]
 Deg. of freedom    29
 Full point group                 CS      NOp   2
 RotChk:  IX=3 Diff= 2.94D-01
 Largest Abelian subgroup         CS      NOp   2
 Largest concise Abelian subgroup C1      NOp   1
                         Standard orientation:                         
 ---------------------------------------------------------------------
 Center     Atomic      Atomic             Coordinates (Angstroms)
 Number     Number       Type             X           Y           Z
 ---------------------------------------------------------------------
      1          6           0       -1.107952   -1.550097    0.000000
      2          6           0       -0.786549   -2.947235    0.000000
      3          6           0        0.564241   -3.165490    0.000000
      4         16           0        1.463329   -1.681844    0.000000
      5          6           0        0.000000   -0.735159    0.000000
      6          6           0       -0.000004    0.735302    0.000000
      7         16           0       -1.463439    1.681856    0.000000
      8          6           0       -0.564108    3.165351    0.000000
      9          6           0        0.786822    2.947002    0.000000
     10          6           0        1.108111    1.550035    0.000000
     11          1           0       -2.126068   -1.176545    0.000000
     12          1           0       -1.527230   -3.739590    0.000000
     13          1           0        1.040927   -4.136855    0.000000
     14          1           0       -1.040611    4.136792    0.000000
     15          1           0        1.525220    3.741489    0.000000
     16          1           0        2.126152    1.176264    0.000000
 ---------------------------------------------------------------------
 Rotational constants (GHZ):      2.6729527      0.6464798      0.5205739
 Leave Link  202 at Fri Oct 15 18:34:53 2021, MaxMem=   402653184 cpu:         0.1
 (Enter /aplic/Gaussian/g09d01_prebuilt_iqtc01/g09/l301.exe)
 Standard basis: 6-31+G(d) (6D, 7F)
 Ernie: Thresh=  0.10000D-02 Tol=  0.10000D-05 Strict=F.
 There are   158 symmetry adapted cartesian basis functions of A'  symmetry.
 There are    52 symmetry adapted cartesian basis functions of A"  symmetry.
 There are   158 symmetry adapted basis functions of A'  symmetry.
 There are    52 symmetry adapted basis functions of A"  symmetry.
   210 basis functions,   392 primitive gaussians,   210 cartesian basis functions
    43 alpha electrons       43 beta electrons
       nuclear repulsion energy       628.9490679295 Hartrees.
 IExCor=  402 DFT=T Ex+Corr=B3LYP ExCW=0 ScaHFX=  0.200000
 ScaDFX=  0.800000  0.720000  1.000000  0.810000 ScalE2=  1.000000  1.000000
 IRadAn=      0 IRanWt=     -1 IRanGd=            0 ICorTp=0 IEmpDi=  4
 NAtoms=   16 NActive=   16 NUniq=   16 SFac= 1.00D+00 NAtFMM=   60 NAOKFM=F Big=F
 Integral buffers will be    131072 words long.
 Raffenetti 2 integral format.
 Two-electron integral symmetry is turned on.
 Leave Link  301 at Fri Oct 15 18:34:53 2021, MaxMem=   402653184 cpu:         0.4
 (Enter /aplic/Gaussian/g09d01_prebuilt_iqtc01/g09/l302.exe)
 NPDir=0 NMtPBC=     1 NCelOv=     1 NCel=       1 NClECP=     1 NCelD=      1
         NCelK=      1 NCelE2=     1 NClLst=     1 CellRange=     0.0.
 One-electron integrals computed using PRISM.
 NBasis=   210 RedAO= T EigKep=  1.81D-06  NBF=   158    52
 NBsUse=   210 1.00D-06 EigRej= -1.00D+00 NBFU=   158    52
 Precomputing XC quadrature grid using
 IXCGrd= 4 IRadAn=           0 IRanWt=          -1 IRanGd=           0 AccXCQ= 0.00D+00.
 Generated NRdTot=       0 NPtTot=           0 NUsed=           0 NTot=          32
 NSgBfM=   209   209   209   209   209 MxSgAt=    16 MxSgA2=    16.
 Leave Link  302 at Fri Oct 15 18:34:53 2021, MaxMem=   402653184 cpu:         1.8
 (Enter /aplic/Gaussian/g09d01_prebuilt_iqtc01/g09/l303.exe)
 DipDrv:  MaxL=1.
 Leave Link  303 at Fri Oct 15 18:34:54 2021, MaxMem=   402653184 cpu:         0.4
 (Enter /aplic/Gaussian/g09d01_prebuilt_iqtc01/g09/l401.exe)
 Initial guess from the checkpoint file:  "bithi.chk"
 B after Tr=     0.000000    0.000000    0.000000
         Rot=    0.995007    0.000000    0.000000   -0.099808 Ang= -11.46 deg.
 Guess basis will be translated and rotated to current coordinates.
 JPrj=2 DoOrth=T DoCkMO=T.
 Initial guess orbital symmetries:
       Occupied  (A') (A') (A') (A') (A') (A') (A') (A') (A') (A')
                 (A') (A') (A') (A') (A') (A') (A") (A") (A') (A')
                 (A') (A') (A') (A') (A') (A') (A') (A') (A') (A')
                 (A') (A') (A") (A') (A') (A") (A') (A') (A') (A")
                 (A") (A") (A")
       Virtual   (A') (A') (A') (A') (A') (A') (A') (A') (A') (A')
                 (A') (A') (A') (A') (A') (A') (A') (A') (A') (A')
                 (A') (A') (A') (A') (A') (A') (A') (A') (A') (A')
                 (A') (A') (A') (A') (A') (A') (A') (A') (A') (A')
                 (A') (A') (A') (A') (A') (A') (A') (A') (A') (A')
                 (A') (A') (A') (A') (A') (A') (A') (A') (A') (A')
                 (A') (A') (A') (A') (A') (A') (A') (A') (A') (A')
                 (A') (A') (A') (A') (A') (A') (A') (A') (A') (A')
                 (A') (A') (A') (A') (A') (A') (A') (A') (A') (A')
                 (A') (A') (A') (A') (A') (A') (A') (A') (A') (A')
                 (A') (A') (A') (A') (A') (A') (A') (A') (A') (A')
                 (A') (A') (A') (A') (A') (A') (A') (A') (A') (A')
                 (A') (A') (A') (A") (A") (A") (A") (A") (A") (A")
                 (A") (A") (A") (A") (A") (A") (A") (A") (A") (A")
                 (A") (A") (A") (A") (A") (A") (A") (A") (A") (A")
                 (A") (A") (A") (A") (A") (A") (A") (A") (A") (A")
                 (A") (A") (A") (A") (A") (A") (A")
 The electronic state of the initial guess is 1-A'.
 Generating alternative initial guess.
 ExpMin= 4.05D-02 ExpMax= 2.19D+04 ExpMxC= 3.30D+03 IAcc=2 IRadAn=         4 AccDes= 0.00D+00
 Harris functional with IExCor=  402 and IRadAn=       4 diagonalized for initial guess.
 HarFok:  IExCor=  402 AccDes= 0.00D+00 IRadAn=         4 IDoV= 1 UseB2=F ITyADJ=14
 ICtDFT=  3500011 ScaDFX=  1.000000  1.000000  1.000000  1.000000
 FoFCou: FMM=F IPFlag=           0 FMFlag=      100000 FMFlg1=           0
         NFxFlg=           0 DoJE=T BraDBF=F KetDBF=T FulRan=T
         wScrn=  0.000000 ICntrl=     500 IOpCl=  0 I1Cent=   200000004 NGrid=           0
         NMat0=    1 NMatS0=      1 NMatT0=    0 NMatD0=    1 NMtDS0=    0 NMtDT0=    0
 Petite list used in FoFCou.
 Harris En= -1104.77002657187    
 Leave Link  401 at Fri Oct 15 18:34:56 2021, MaxMem=   402653184 cpu:         7.0
 (Enter /aplic/Gaussian/g09d01_prebuilt_iqtc01/g09/l502.exe)
 Closed shell SCF:
 Using DIIS extrapolation, IDIIS=  1040.
 Integral symmetry usage will be decided dynamically.
 Keep R1 ints in memory in symmetry-blocked form, NReq=376544350.
 IVT=      153744 IEndB=      153744 NGot=   402653184 MDV=   271542135
 LenX=   271542135 LenY=   271497594
 Requested convergence on RMS density matrix=1.00D-08 within 128 cycles.
 Requested convergence on MAX density matrix=1.00D-06.
 Requested convergence on             energy=1.00D-06.
 No special actions if energy rises.
 FoFCou: FMM=F IPFlag=           0 FMFlag=           0 FMFlg1=           0
         NFxFlg=           0 DoJE=F BraDBF=F KetDBF=F FulRan=T
         wScrn=  0.000000 ICntrl=     600 IOpCl=  0 I1Cent=           0 NGrid=           0
         NMat0=    1 NMatS0=  22155 NMatT0=    0 NMatD0=    1 NMtDS0=    0 NMtDT0=    0
 Petite list used in FoFCou.

 Cycle   1  Pass 1  IDiag  1:
 E= -1104.81182548323    
 DIIS: error= 2.01D-02 at cycle   1 NSaved=   1.
 NSaved= 1 IEnMin= 1 EnMin= -1104.81182548323     IErMin= 1 ErrMin= 2.01D-02
 ErrMax= 2.01D-02  0.00D+00 EMaxC= 1.00D-01 BMatC= 3.10D-02 BMatP= 3.10D-02
 IDIUse=3 WtCom= 7.99D-01 WtEn= 2.01D-01
 Coeff-Com:  0.100D+01
 Coeff-En:   0.100D+01
 Coeff:      0.100D+01
 Recover alternate guess density for next cycle.
 RMSDP=3.38D-02 MaxDP=1.73D+00              OVMax= 0.00D+00

 Cycle   2  Pass 1  IDiag  1:
 E= -1104.42975319693     Delta-E=        0.382072286299 Rises=F Damp=F
 Switch densities from cycles 1 and 2 for lowest energy.
 DIIS: error= 3.44D-02 at cycle   2 NSaved=   2.
 NSaved= 2 IEnMin= 1 EnMin= -1104.81182548323     IErMin= 1 ErrMin= 2.01D-02
 ErrMax= 3.44D-02  0.00D+00 EMaxC= 1.00D+00 BMatC= 3.60D-01 BMatP= 3.10D-02
 IDIUse=1 WtCom= 1.00D+00 WtEn= 0.00D+00
 Coeff-Com:  0.948D+00 0.520D-01
 Coeff:      0.948D+00 0.520D-01
 Gap=     0.306 Goal=   None    Shift=    0.000
 RMSDP=4.03D-02 MaxDP=2.81D+00 DE= 3.82D-01 OVMax= 3.95D-02

 Cycle   3  Pass 1  IDiag  1:
 E= -1104.82412400889     Delta-E=       -0.394370811955 Rises=F Damp=F
 DIIS: error= 3.69D-03 at cycle   3 NSaved=   3.
 NSaved= 3 IEnMin= 3 EnMin= -1104.82412400889     IErMin= 3 ErrMin= 3.69D-03
 ErrMax= 3.69D-03  0.00D+00 EMaxC= 1.00D+00 BMatC= 4.21D-03 BMatP= 3.10D-02
 IDIUse=1 WtCom= 1.00D+00 WtEn= 0.00D+00
 Coeff-Com:  0.141D-01 0.895D-01 0.896D+00
 Coeff:      0.141D-01 0.895D-01 0.896D+00
 Gap=     0.156 Goal=   None    Shift=    0.000
 RMSDP=5.41D-03 MaxDP=2.71D-01 DE=-3.94D-01 OVMax= 2.47D-02

 Cycle   4  Pass 1  IDiag  1:
 E= -1104.82816428017     Delta-E=       -0.004040271278 Rises=F Damp=F
 DIIS: error= 1.90D-03 at cycle   4 NSaved=   4.
 NSaved= 4 IEnMin= 4 EnMin= -1104.82816428017     IErMin= 4 ErrMin= 1.90D-03
 ErrMax= 1.90D-03  0.00D+00 EMaxC= 1.00D+00 BMatC= 6.98D-04 BMatP= 4.21D-03
 IDIUse=1 WtCom= 1.00D+00 WtEn= 0.00D+00
 Coeff-Com: -0.326D-02 0.435D-01 0.477D+00 0.483D+00
 Coeff:     -0.326D-02 0.435D-01 0.477D+00 0.483D+00
 Gap=     0.156 Goal=   None    Shift=    0.000
 RMSDP=9.87D-04 MaxDP=5.67D-02 DE=-4.04D-03 OVMax= 1.28D-02

 Cycle   5  Pass 1  IDiag  1:
 E= -1104.82870242015     Delta-E=       -0.000538139983 Rises=F Damp=F
 DIIS: error= 1.48D-03 at cycle   5 NSaved=   5.
 NSaved= 5 IEnMin= 5 EnMin= -1104.82870242015     IErMin= 5 ErrMin= 1.48D-03
 ErrMax= 1.48D-03  0.00D+00 EMaxC= 1.00D+00 BMatC= 2.03D-04 BMatP= 6.98D-04
 IDIUse=1 WtCom= 1.00D+00 WtEn= 0.00D+00
 Coeff-Com: -0.139D-02 0.652D-02 0.123D+00 0.344D+00 0.528D+00
 Coeff:     -0.139D-02 0.652D-02 0.123D+00 0.344D+00 0.528D+00
 Gap=     0.156 Goal=   None    Shift=    0.000
 RMSDP=3.33D-04 MaxDP=2.00D-02 DE=-5.38D-04 OVMax= 6.07D-03

 Cycle   6  Pass 1  IDiag  1:
 E= -1104.82891261372     Delta-E=       -0.000210193576 Rises=F Damp=F
 DIIS: error= 2.64D-04 at cycle   6 NSaved=   6.
 NSaved= 6 IEnMin= 6 EnMin= -1104.82891261372     IErMin= 6 ErrMin= 2.64D-04
 ErrMax= 2.64D-04  0.00D+00 EMaxC= 1.00D+00 BMatC= 1.14D-05 BMatP= 2.03D-04
 IDIUse=1 WtCom= 1.00D+00 WtEn= 0.00D+00
 Coeff-Com: -0.395D-03 0.794D-03 0.400D-01 0.175D+00 0.312D+00 0.473D+00
 Coeff:     -0.395D-03 0.794D-03 0.400D-01 0.175D+00 0.312D+00 0.473D+00
 Gap=     0.156 Goal=   None    Shift=    0.000
 RMSDP=1.43D-04 MaxDP=6.54D-03 DE=-2.10D-04 OVMax= 1.54D-03

 Cycle   7  Pass 1  IDiag  1:
 E= -1104.82892329215     Delta-E=       -0.000010678428 Rises=F Damp=F
 DIIS: error= 9.07D-05 at cycle   7 NSaved=   7.
 NSaved= 7 IEnMin= 7 EnMin= -1104.82892329215     IErMin= 7 ErrMin= 9.07D-05
 ErrMax= 9.07D-05  0.00D+00 EMaxC= 1.00D+00 BMatC= 1.09D-06 BMatP= 1.14D-05
 IDIUse=1 WtCom= 1.00D+00 WtEn= 0.00D+00
 Coeff-Com: -0.175D-03-0.964D-04 0.819D-02 0.596D-01 0.115D+00 0.276D+00
 Coeff-Com:  0.541D+00
 Coeff:     -0.175D-03-0.964D-04 0.819D-02 0.596D-01 0.115D+00 0.276D+00
 Coeff:      0.541D+00
 Gap=     0.156 Goal=   None    Shift=    0.000
 RMSDP=4.96D-05 MaxDP=2.73D-03 DE=-1.07D-05 OVMax= 3.77D-04

 Cycle   8  Pass 1  IDiag  1:
 E= -1104.82892450208     Delta-E=       -0.000001209931 Rises=F Damp=F
 DIIS: error= 5.75D-06 at cycle   8 NSaved=   8.
 NSaved= 8 IEnMin= 8 EnMin= -1104.82892450208     IErMin= 8 ErrMin= 5.75D-06
 ErrMax= 5.75D-06  0.00D+00 EMaxC= 1.00D+00 BMatC= 9.27D-09 BMatP= 1.09D-06
 IDIUse=1 WtCom= 1.00D+00 WtEn= 0.00D+00
 Coeff-Com: -0.431D-04-0.601D-04 0.709D-03 0.114D-01 0.229D-01 0.610D-01
 Coeff-Com:  0.155D+00 0.749D+00
 Coeff:     -0.431D-04-0.601D-04 0.709D-03 0.114D-01 0.229D-01 0.610D-01
 Coeff:      0.155D+00 0.749D+00
 Gap=     0.156 Goal=   None    Shift=    0.000
 RMSDP=2.53D-06 MaxDP=5.58D-05 DE=-1.21D-06 OVMax= 3.88D-05

 Cycle   9  Pass 1  IDiag  1:
 E= -1104.82892450863     Delta-E=       -0.000000006547 Rises=F Damp=F
 DIIS: error= 4.08D-06 at cycle   9 NSaved=   9.
 NSaved= 9 IEnMin= 9 EnMin= -1104.82892450863     IErMin= 9 ErrMin= 4.08D-06
 ErrMax= 4.08D-06  0.00D+00 EMaxC= 1.00D+00 BMatC= 3.10D-09 BMatP= 9.27D-09
 IDIUse=1 WtCom= 1.00D+00 WtEn= 0.00D+00
 Coeff-Com: -0.353D-05-0.296D-04-0.524D-03 0.168D-03 0.824D-03 0.402D-02
 Coeff-Com:  0.276D-01 0.404D+00 0.564D+00
 Coeff:     -0.353D-05-0.296D-04-0.524D-03 0.168D-03 0.824D-03 0.402D-02
 Coeff:      0.276D-01 0.404D+00 0.564D+00
 Gap=     0.156 Goal=   None    Shift=    0.000
 RMSDP=1.42D-06 MaxDP=5.67D-05 DE=-6.55D-09 OVMax= 1.76D-05

 Cycle  10  Pass 1  IDiag  1:
 E= -1104.82892451169     Delta-E=       -0.000000003063 Rises=F Damp=F
 DIIS: error= 5.61D-07 at cycle  10 NSaved=  10.
 NSaved=10 IEnMin=10 EnMin= -1104.82892451169     IErMin=10 ErrMin= 5.61D-07
 ErrMax= 5.61D-07  0.00D+00 EMaxC= 1.00D+00 BMatC= 8.72D-11 BMatP= 3.10D-09
 IDIUse=1 WtCom= 1.00D+00 WtEn= 0.00D+00
 Coeff-Com:  0.719D-06-0.784D-05-0.232D-03-0.489D-03-0.731D-03-0.191D-02
 Coeff-Com:  0.182D-02 0.101D+00 0.209D+00 0.691D+00
 Coeff:      0.719D-06-0.784D-05-0.232D-03-0.489D-03-0.731D-03-0.191D-02
 Coeff:      0.182D-02 0.101D+00 0.209D+00 0.691D+00
 Gap=     0.156 Goal=   None    Shift=    0.000
 RMSDP=5.95D-07 MaxDP=3.56D-05 DE=-3.06D-09 OVMax= 3.14D-06

 Cycle  11  Pass 1  IDiag  1:
 E= -1104.82892451175     Delta-E=       -0.000000000050 Rises=F Damp=F
 DIIS: error= 1.19D-07 at cycle  11 NSaved=  11.
 NSaved=11 IEnMin=11 EnMin= -1104.82892451175     IErMin=11 ErrMin= 1.19D-07
 ErrMax= 1.19D-07  0.00D+00 EMaxC= 1.00D+00 BMatC= 5.84D-12 BMatP= 8.72D-11
 IDIUse=1 WtCom= 1.00D+00 WtEn= 0.00D+00
 Coeff-Com:  0.367D-06-0.129D-05-0.755D-04-0.257D-03-0.411D-03-0.121D-02
 Coeff-Com: -0.906D-03 0.211D-01 0.573D-01 0.288D+00 0.636D+00
 Coeff:      0.367D-06-0.129D-05-0.755D-04-0.257D-03-0.411D-03-0.121D-02
 Coeff:     -0.906D-03 0.211D-01 0.573D-01 0.288D+00 0.636D+00
 Gap=     0.156 Goal=   None    Shift=    0.000
 RMSDP=1.05D-07 MaxDP=5.09D-06 DE=-5.02D-11 OVMax= 8.90D-07

 Cycle  12  Pass 1  IDiag  1:
 E= -1104.82892451177     Delta-E=       -0.000000000021 Rises=F Damp=F
 DIIS: error= 5.06D-08 at cycle  12 NSaved=  12.
 NSaved=12 IEnMin=12 EnMin= -1104.82892451177     IErMin=12 ErrMin= 5.06D-08
 ErrMax= 5.06D-08  0.00D+00 EMaxC= 1.00D+00 BMatC= 4.83D-13 BMatP= 5.84D-12
 IDIUse=1 WtCom= 1.00D+00 WtEn= 0.00D+00
 Coeff-Com:  0.163D-06-0.133D-06-0.163D-04-0.755D-04-0.123D-03-0.396D-03
 Coeff-Com: -0.464D-03 0.249D-02 0.104D-01 0.787D-01 0.278D+00 0.631D+00
 Coeff:      0.163D-06-0.133D-06-0.163D-04-0.755D-04-0.123D-03-0.396D-03
 Coeff:     -0.464D-03 0.249D-02 0.104D-01 0.787D-01 0.278D+00 0.631D+00
 Gap=     0.156 Goal=   None    Shift=    0.000
 RMSDP=4.97D-08 MaxDP=3.27D-06 DE=-2.14D-11 OVMax= 4.64D-07

 Cycle  13  Pass 1  IDiag  1:
 E= -1104.82892451178     Delta-E=       -0.000000000012 Rises=F Damp=F
 DIIS: error= 4.29D-08 at cycle  13 NSaved=  13.
 NSaved=13 IEnMin=13 EnMin= -1104.82892451178     IErMin=13 ErrMin= 4.29D-08
 ErrMax= 4.29D-08  0.00D+00 EMaxC= 1.00D+00 BMatC= 2.61D-13 BMatP= 4.83D-13
 IDIUse=1 WtCom= 1.00D+00 WtEn= 0.00D+00
 Coeff-Com:  0.714D-07 0.673D-07-0.635D-06-0.150D-04-0.256D-04-0.102D-03
 Coeff-Com: -0.183D-03-0.118D-02-0.921D-03 0.141D-01 0.104D+00 0.451D+00
 Coeff-Com:  0.433D+00
 Coeff:      0.714D-07 0.673D-07-0.635D-06-0.150D-04-0.256D-04-0.102D-03
 Coeff:     -0.183D-03-0.118D-02-0.921D-03 0.141D-01 0.104D+00 0.451D+00
 Coeff:      0.433D+00
 Gap=     0.156 Goal=   None    Shift=    0.000
 RMSDP=1.92D-08 MaxDP=1.28D-06 DE=-1.21D-11 OVMax= 2.21D-07

 Cycle  14  Pass 1  IDiag  1:
 E= -1104.82892451178     Delta-E=       -0.000000000003 Rises=F Damp=F
 DIIS: error= 1.98D-09 at cycle  14 NSaved=  14.
 NSaved=14 IEnMin=14 EnMin= -1104.82892451178     IErMin=14 ErrMin= 1.98D-09
 ErrMax= 1.98D-09  0.00D+00 EMaxC= 1.00D+00 BMatC= 1.50D-15 BMatP= 2.61D-13
 IDIUse=1 WtCom= 1.00D+00 WtEn= 0.00D+00
 Coeff-Com: -0.183D-08 0.250D-07 0.784D-06 0.268D-05 0.424D-05 0.921D-05
 Coeff-Com: -0.223D-05-0.357D-03-0.862D-03-0.302D-02-0.410D-02 0.323D-01
 Coeff-Com:  0.772D-01 0.899D+00
 Coeff:     -0.183D-08 0.250D-07 0.784D-06 0.268D-05 0.424D-05 0.921D-05
 Coeff:     -0.223D-05-0.357D-03-0.862D-03-0.302D-02-0.410D-02 0.323D-01
 Coeff:      0.772D-01 0.899D+00
 Gap=     0.156 Goal=   None    Shift=    0.000
 RMSDP=3.41D-09 MaxDP=2.03D-07 DE=-2.96D-12 OVMax= 1.71D-08

 SCF Done:  E(RB3LYP) =  -1104.82892451     A.U. after   14 cycles
            NFock= 14  Conv=0.34D-08     -V/T= 2.0052
 KE= 1.099059947358D+03 PE=-3.863178228956D+03 EE= 1.030340289156D+03
 Leave Link  502 at Fri Oct 15 18:35:52 2021, MaxMem=   402653184 cpu:       180.3
 (Enter /aplic/Gaussian/g09d01_prebuilt_iqtc01/g09/l701.exe)
 Compute integral first derivatives.
 ... and contract with generalized density number  0.
 Leave Link  701 at Fri Oct 15 18:35:54 2021, MaxMem=   402653184 cpu:         2.8
 (Enter /aplic/Gaussian/g09d01_prebuilt_iqtc01/g09/l702.exe)
 L702 exits ... SP integral derivatives will be done elsewhere.
 Leave Link  702 at Fri Oct 15 18:35:54 2021, MaxMem=   402653184 cpu:         0.3
[...]
 ! D4    D(11,1,2,12)            0.0            -DE/DX =    0.0                 !
 ! D5    D(2,1,5,4)              0.0            -DE/DX =    0.0                 !
 ! D6    D(2,1,5,6)            180.0            -DE/DX =    0.0                 !
 ! D7    D(11,1,5,4)           180.0            -DE/DX =    0.0                 !
 ! D8    D(11,1,5,6)             0.0            -DE/DX =    0.0                 !
 ! D9    D(1,2,3,4)              0.0            -DE/DX =    0.0                 !
 ! D10   D(1,2,3,13)           180.0            -DE/DX =    0.0                 !
 ! D11   D(12,2,3,4)           180.0            -DE/DX =    0.0                 !
 ! D12   D(12,2,3,13)            0.0            -DE/DX =    0.0                 !
 ! D13   D(2,3,4,5)              0.0            -DE/DX =    0.0                 !
 ! D14   D(13,3,4,5)           180.0            -DE/DX =    0.0                 !
 ! D15   D(3,4,5,1)              0.0            -DE/DX =    0.0                 !
 ! D16   D(3,4,5,6)            180.0            -DE/DX =    0.0                 !
 ! D17   D(1,5,6,7)              0.0            -DE/DX =    0.0                 !
 ! D18   D(1,5,6,10)           180.0            -DE/DX =    0.0                 !
 ! D19   D(4,5,6,7)            180.0            -DE/DX =    0.0                 !
 ! D20   D(4,5,6,10)             0.0            -DE/DX =    0.0                 !
 ! D21   D(5,6,7,8)            180.0            -DE/DX =    0.0                 !
 ! D22   D(10,6,7,8)             0.0            -DE/DX =    0.0                 !
 ! D23   D(5,6,10,9)           180.0            -DE/DX =    0.0                 !
 ! D24   D(5,6,10,16)            0.0            -DE/DX =    0.0                 !
 ! D25   D(7,6,10,9)             0.0            -DE/DX =    0.0                 !
 ! D26   D(7,6,10,16)          180.0            -DE/DX =    0.0                 !
 ! D27   D(6,7,8,9)              0.0            -DE/DX =    0.0                 !
 ! D28   D(6,7,8,14)           180.0            -DE/DX =    0.0                 !
 ! D29   D(7,8,9,10)             0.0            -DE/DX =    0.0                 !
 ! D30   D(7,8,9,15)           180.0            -DE/DX =    0.0                 !
 ! D31   D(14,8,9,10)          180.0            -DE/DX =    0.0                 !
 ! D32   D(14,8,9,15)            0.0            -DE/DX =    0.0                 !
 ! D33   D(8,9,10,6)             0.0            -DE/DX =    0.0                 !
 ! D34   D(8,9,10,16)          180.0            -DE/DX =    0.0                 !
 ! D35   D(15,9,10,6)          180.0            -DE/DX =    0.0                 !
 ! D36   D(15,9,10,16)           0.0            -DE/DX =    0.0                 !
 --------------------------------------------------------------------------------
 GradGradGradGradGradGradGradGradGradGradGradGradGradGradGradGradGradGrad

 Leave Link  103 at Fri Oct 15 18:48:02 2021, MaxMem=   402653184 cpu:         1.2
 (Enter /aplic/Gaussian/g09d01_prebuilt_iqtc01/g09/l9999.exe)
 1\1\GINC-G4INODE2\Freq\RB3LYP\6-31+G(d)\C8H6S2\CMM21\15-Oct-2021\0\\#P
  Geom=AllCheck Guess=TCheck SCRF=Check GenChk RB3LYP/6-31+G(d) Freq\\b
 ithiophene\\0,1\C,-0.1103336397,0.,0.0464359474\C,-0.0734429461,0.,1.4
 706053881\C,1.2024494153,0.,1.9691695149\S,2.3844752841,0.,0.698845230
 4\C,1.1401720773,0.,-0.5392847727\C,1.4900910116,0.,-1.9487325977\S,0.
 2458032732,0.,-3.186864243\C,1.4278185203,0.,-4.4571860848\C,2.7037141
 955,0.,-3.9586206984\C,2.740604419,0.,-2.5344540092\H,-1.0314109924,0.
 ,-0.5275068706\H,-0.9595921382,0.,2.0964958646\H,1.5224292225,0.,3.002
 8622368\H,1.1078561968,0.,-5.4908840656\H,3.5898779733,0.,-4.584489937
 4\H,3.6616728291,0.,-1.9604965505\\Version=AM64L-G09RevD.01\State=1-A'
 \HF=-1104.8304945\RMSD=5.670e-09\RMSF=1.628e-04\ZeroPoint=0.113938\The
 rmal=0.121496\Dipole=-0.0000078,0.,0.0000026\DipoleDeriv=-0.2069918,-0
 .000009,0.1136466,0.0001028,-0.124559,0.0000498,0.0978215,-0.0000005,0
 .0120962,-0.0816111,0.0000514,-0.1879201,-0.0000423,-0.1399884,-0.0000
 175,-0.1357774,0.0000333,-0.041721,0.2494086,-0.0000062,0.0430963,0.00
 00132,-0.2665964,-0.0000006,-0.1147201,0.000061,-0.3733877,-0.2361595,
 -0.0000192,-0.0912528,-0.0000038,0.1165319,-0.0000084,0.0549255,-0.000
 0341,0.0682428,0.2453073,-0.0000295,0.0982956,-0.0000473,-0.1035774,-0
 .0000138,0.1264154,-0.0000075,0.2889678,0.2452825,-0.0000336,0.0982924
 ,-0.0000636,-0.1036088,-0.0000487,0.1263716,-0.0000554,0.288912,-0.236
 1909,-0.0000105,-0.0911854,0.0000199,0.1165768,0.0000358,0.0549823,0.0
 000552,0.0683539,0.249422,0.0000028,0.043096,0.0000166,-0.2666026,-0.0
 000134,-0.1147849,-0.0000428,-0.3735088,-0.0816723,-0.0000089,-0.18795
 68,-0.0000178,-0.1399646,-0.0000031,-0.1359245,-0.0000742,-0.0417458,-
 0.20685,0.0000892,0.1136586,0.0000472,-0.1246205,0.0000069,0.0978689,0
 .0000511,0.0121337,-0.0052185,0.00001,-0.0915679,-0.0000086,0.1607012,
 -0.0000076,-0.0742032,-0.000014,0.0423061,-0.0359287,-0.0000357,0.1014
 11,-0.0000067,0.1692339,0.0000014,0.06498,0.0000389,0.0180883,0.071150
 7,0.0000007,0.0142759,-0.0000144,0.188249,-0.0000043,-0.0193759,-0.000
 0327,-0.01458,0.0711666,0.0000035,0.0142665,0.0000025,0.1882679,0.0000
 091,-0.0193301,0.0000156,-0.0145445,-0.0359121,-0.0000175,0.1014243,-0
 .0000015,0.1692389,0.0000051,0.0649284,0.,0.0180781,-0.0052027,0.00001
 24,-0.0915801,0.0000037,0.1607183,0.0000093,-0.0741776,0.0000061,0.042
 309\Polar=134.8934949,-0.0000811,71.8889035,-12.0710958,-0.0014795,195
 .3118915\PG=CS [SG(C8H6S2)]\NImag=1\\0.75653735,0.00000232,0.11876015,
 0.05923670,-0.00000086,0.63566046,-0.10903720,-0.00000002,0.01737754,0
 .78096484,-0.00000098,-0.05744835,0.00000035,0.00000012,0.11977735,-0.
 02513997,-0.00000174,-0.28520422,-0.06181876,0.00000079,0.62918274,0.0
 0227562,0.00000090,-0.06753664,-0.37002894,-0.00000039,-0.08313924,0.5
 8469227,0.00000035,0.00908210,-0.00000011,-0.00000025,-0.05382307,-0.0
 0000039,0.00000015,0.08178669,-0.02092584,0.00000176,-0.03653765,-0.11
 811077,-0.00000060,-0.13619421,0.16797779,-0.00000006,0.66953919,-0.06
 004157,-0.00000323,0.01271543,-0.06406893,0.00000129,-0.00879941,-0.09
 607613,-0.00000033,0.04832476,0.30679888,-0.00000004,0.00700628,0.0000
 0003,-0.00000023,0.00815196,-0.00000009,0.,-0.02990441,-0.00000033,0.0
 0000020,0.03813891,-0.02542001,-0.00000006,-0.00807649,0.02967119,-0.0
 0000005,-0.00757550,0.08143791,0.00000016,-0.11806357,-0.01477052,0.00
 000016,0.26178738,-0.32791471,-0.00000071,0.07825866,0.00914197,0.0000
 0023,0.06434749,-0.01851581,0.00000005,-0.00732257,-0.09480430,0.00000
 016,-0.07085650,0.55880248,-0.00000113,-0.05801333,0.00000040,0.000000
 33,0.00770336,0.00000102,-0.00000046,0.00918976,-0.00000043,0.00000138
 ,-0.03397518,-0.00000019,0.00000015,0.10594924,0.10638549,-0.00000106,
 -0.13667191,0.01780681,0.00000042,-0.04066189,0.00332282,-0.00000010,-
 0.04435296,-0.03145328,0.00000007,-0.09208708,-0.13063329,0.00000044,0
 .59996776,-0.00437966,0.,0.03663731,-0.00641520,-0.00000007,-0.0008250
 1,-0.00510996,0.00000016,-0.00216307,0.00774564,0.00000015,-0.01943698
 ,-0.09757207,-0.00000021,0.03711182,0.55879227,-0.00000130,0.00210391,
 0.00000053,-0.00000063,0.00437208,0.00000065,-0.00000047,-0.00087840,-
 0.00000183,0.00000220,-0.00095540,0.00000046,0.00000080,-0.04039837,0.
 00000074,0.00000042,0.10595164,0.01958216,-0.00000047,-0.02307898,0.00
 328622,0.00000008,0.00744634,-0.00344934,0.00000021,-0.00256016,-0.007
 46540,0.00000027,-0.02458250,0.03711218,-0.00000013,-0.24764888,-0.130
 61998,0.00000098,0.59997162,-0.00024254,0.00000314,0.00302386,-0.00076
 455,-0.00000132,-0.00097691,0.00060451,0.00000047,0.00097642,0.0009163
 7,-0.00000006,0.00290105,0.00774435,-0.00000153,-0.00746690,-0.0948102
 3,-0.00000178,-0.03145923,0.30680725,0.00000025,0.00065157,-0.00000016
 ,0.00000093,-0.00130269,0.00000029,0.00000005,0.00022477,0.00000142,-0
 .00000093,-0.00010195,-0.00000063,-0.00000066,-0.00095634,-0.00000033,
 -0.00000061,-0.03397592,-0.00000109,0.00000037,0.03813805,-0.00145991,
 0.00000323,0.00055178,0.00025051,-0.00000122,-0.00005512,-0.00193306,0
 .00000016,0.00080347,0.00290054,-0.00000036,-0.00140138,-0.01943838,-0
 .00000115,-0.02458362,-0.07086373,-0.00000266,-0.09209535,-0.01477158,
 0.00000158,0.26180122,-0.00099507,-0.00000088,0.00150051,0.00092041,0.
 00000037,-0.00028208,-0.00142718,-0.00000013,0.00181613,0.00060485,0.0
 0000002,-0.00193277,-0.00510971,0.00000043,-0.00344901,-0.01851584,0.0
 0000050,0.00332263,-0.09608043,-0.00000011,0.08144433,0.58468455,0.000
 00054,-0.00024185,-0.00000014,-0.00000077,0.00064862,-0.00000080,0.000
 00025,0.00005666,-0.00000060,-0.00000027,0.00022478,0.00000050,0.00000
 032,-0.00087793,-0.00000007,0.00000050,0.00919030,0.00000074,0.0000007
 0,-0.02990361,-0.00000026,-0.00000019,0.08178622,-0.00240382,-0.000001
 95,0.00154815,-0.00113254,0.00000072,-0.00181760,0.00181635,-0.0000000
 5,-0.00223755,0.00097653,0.00000026,0.00080153,-0.00216139,0.00000064,
 -0.00255810,-0.00732011,0.00000172,-0.04435117,0.04833124,-0.00000113,
 -0.11807100,0.16796459,0.00000030,0.66954748,0.00110127,0.00000088,0.0
 0072196,-0.00076532,-0.00000038,-0.00000114,0.00092061,0.00000016,-0.0
 0113116,-0.00076562,0.00000001,0.00024835,-0.00641512,-0.00000046,0.00
 328689,0.00914225,-0.00000042,0.01780704,-0.06406886,0.,0.02967160,-0.
 37002070,0.00000028,-0.11810829,0.78096361,-0.00000044,0.00083879,0.00
 000015,0.00000020,-0.00037428,0.00000044,-0.00000018,0.00064809,-0.000
 00007,0.00000050,-0.00130211,-0.00000012,0.00000001,0.00437166,0.00000
 016,-0.00000013,0.00770378,-0.00000013,-0.00000060,0.00815189,-0.00000
 036,0.00000017,-0.05382369,0.00000018,-0.00000019,0.11977822,0.0024384
 8,0.00000346,-0.00372049,-0.00000046,-0.00000158,0.00184315,-0.0002826
 6,0.00000082,-0.00181759,-0.00097570,0.00000022,-0.00005667,-0.0008253
 1,-0.00000207,0.00744672,0.06434711,-0.00000118,-0.04066165,-0.0088023
 0,-0.00000073,-0.00757761,-0.08313456,0.00000170,-0.13619298,-0.061821
 73,-0.00000090,0.62917653,0.00531052,-0.00000252,-0.00692362,0.0011010
 0,0.00000123,0.00243876,-0.00099435,-0.00000077,-0.00240241,-0.0002445
 2,-0.00000032,-0.00145968,-0.00437919,0.00000173,0.01958195,-0.3278989
 4,0.00000042,0.10637715,-0.06003952,0.00000117,-0.02541684,0.00227553,
 -0.00000176,-0.02092824,-0.10903752,0.00000079,-0.02513662,0.75651646,
 0.00000119,0.00162331,-0.00000040,-0.00000058,0.00083899,-0.00000119,0
 .00000049,-0.00024061,0.00000015,-0.00000130,0.00064998,0.00000035,0.,
 0.00210500,-0.00000041,0.00000037,-0.05801556,0.00000039,0.00000159,0.
 00700728,0.00000090,-0.00000044,0.00908195,-0.00000044,0.00000051,-0.0
 5744872,0.00000245,-0.00000217,0.11876142,-0.00692131,-0.00000092,0.00
 116401,0.00072171,0.00000048,-0.00372241,0.00150106,-0.00000037,0.0015
 4882,0.00302177,-0.00000020,0.00055189,0.03663635,0.00000075,-0.023079
 64,0.07824970,-0.00000008,-0.13666948,0.01271771,0.00000076,-0.0080751
 8,-0.06753793,-0.00000092,-0.03653824,0.01737912,0.00000036,-0.2852066
 5,0.05924516,-0.00000100,0.63566680,-0.26448204,0.00000074,-0.12933751
 ,0.00578455,-0.00000029,0.00328599,-0.00022359,0.00000005,0.00186838,-
 0.00306783,-0.00000007,0.00029209,-0.01757972,-0.00000028,-0.01513346,
 0.00045312,-0.00000058,-0.00138102,0.00013497,0.00000032,0.00072753,-0
 .00029951,-0.00000002,0.00077342,0.00047857,-0.00000009,-0.00019975,0.
 00001923,0.00000024,0.00006713,0.27796899,-0.00000017,-0.03039502,0.00
 000007,-0.00000012,0.00129501,0.00000006,-0.00000006,0.00219919,-0.000
 00029,0.00000031,0.00622877,0.00000009,0.00000013,0.00319409,0.0000001
 0,0.00000008,-0.00340324,0.00000017,-0.00000023,0.00121762,-0.00000040
 ,0.00000007,-0.00063157,0.00000026,-0.00000005,-0.00014566,-0.00000011
 ,0.,-0.00014845,-0.00000005,-0.00000008,0.02141090,-0.12832444,0.00000
 055,-0.13829299,-0.02604592,-0.00000025,-0.00680026,-0.00014565,0.0000
 0014,-0.00627269,0.00342494,0.00000004,0.00007050,0.01247661,-0.000000
 34,0.01014234,-0.00039348,-0.00000016,0.00070794,0.00025427,-0.0000001
 6,-0.00143377,0.00045086,0.00000030,-0.00003550,-0.00025166,-0.0000001
 5,-0.00017276,-0.00023697,0.00000041,0.00029664,0.13965381,-0.00000001
 ,0.14099354,0.00697429,-0.00000017,-0.00408384,-0.24975787,0.,0.137121
 73,-0.01684552,0.00000015,0.01721549,-0.00339874,0.00000017,-0.0003483
 5,-0.00028858,-0.00000014,-0.00224742,0.00040942,0.00000055,-0.0000081
 8,0.00000527,-0.00000068,0.00005559,0.00000014,0.00000050,0.00006406,0
 .00008545,-0.00000011,-0.00000394,-0.00009249,0.00000032,-0.00008179,0
 .00013405,0.00000010,0.00071392,0.26180792,-0.00000019,0.00088460,0.00
 000006,0.00000017,-0.03145847,0.00000022,-0.00000008,0.00359774,0.0000
 0008,0.00000016,0.00679662,-0.00000011,-0.00000005,0.00232237,0.000000
 05,-0.00000011,0.00112042,-0.00000015,-0.00000025,0.00001067,-0.000000
 04,0.00000007,-0.00001099,0.,-0.00000009,-0.00022826,-0.00000047,0.000
 00046,-0.00021229,0.00000023,-0.00000002,-0.00191875,-0.00000008,-0.00
 000010,0.02306108,0.02499016,-0.00000075,-0.00791094,0.13626520,0.0000
 0039,-0.15448903,-0.01064732,-0.00000029,0.01003484,-0.00360012,-0.000
 00015,0.00087428,-0.00072150,0.00000059,-0.00606885,0.00148404,-0.0000
 0003,0.00038229,0.00003367,0.00000057,0.00015922,0.00006200,-0.0000007
 1,-0.00015227,0.00010248,0.00000028,-0.00007011,-0.00020767,-0.0000007
 8,-0.00044881,-0.00063674,-0.00000003,0.00086146,-0.14794719,0.0000001
 8,0.15656438,-0.00514661,0.00000095,-0.00160509,0.00234399,-0.00000039
 ,-0.02590723,-0.07916717,0.00000012,-0.08716400,0.00644265,-0.00000004
 ,0.01854232,-0.00535508,-0.00000044,0.00375541,0.00138230,-0.00000058,
 0.00052100,-0.00018224,0.00000018,0.00034771,0.00019523,0.00000015,0.0
 0020421,0.00001747,-0.00000016,-0.00010202,0.00011515,0.00000044,0.000
 03040,0.00039190,-0.00000008,-0.00143183,0.00088297,-0.00000006,0.0007
 6664,0.07804114,-0.00000035,0.00573259,0.00000012,0.00000010,0.0017690
 4,0.00000031,-0.00000014,-0.02114883,-0.00000013,0.00000042,-0.0028072
 4,-0.00000006,0.00000005,-0.00053702,0.00000014,-0.00000006,0.00220583
 ,-0.00000004,-0.00000047,0.00062047,-0.00000035,0.00000013,-0.00014673
 ,0.00000020,-0.00000014,0.00022468,-0.00000063,0.00000053,-0.00022482,
 0.00000023,-0.00000009,0.00078771,-0.00000010,-0.00000004,-0.00416427,
 0.00000018,-0.00000013,0.01796553,-0.00156560,-0.00000065,0.00078758,0
 .00182866,0.00000020,-0.00180670,-0.08923630,0.00000007,-0.33365463,-0
 .00474335,0.00000017,-0.01083390,0.00270381,0.00000010,-0.00082521,-0.
 00066637,0.00000080,-0.00010819,0.00015674,-0.00000071,-0.00013439,-0.
 00019888,0.00000037,-0.00004747,0.00004999,-0.00000001,0.00009879,-0.0
 0002888,0.00000006,-0.00006636,0.00008930,0.00000013,-0.00013148,-0.00
 043121,-0.00000006,0.00031430,0.09206713,0.00000003,0.34638893,0.00011
 434,-0.00000039,0.00002980,0.00001745,0.00000017,-0.00010130,0.0001952
 1,-0.00000007,0.00020437,-0.00018205,0.,0.00034757,0.00138264,0.000000
 21,0.00052141,-0.00535485,0.00000020,0.00375548,0.00644292,0.,0.018542
 50,-0.07916433,-0.00000012,-0.08716008,0.00234352,0.00000008,-0.025907
 62,-0.00514683,-0.00000022,-0.00160554,0.00007475,0.00000002,-0.000066
 00,-0.00000033,0.00000004,0.00001451,-0.00003603,0.00000006,0.00002655
 ,0.07803851,0.,-0.00022461,-0.00000002,0.00000028,0.00022459,0.0000001
 5,-0.00000002,-0.00014694,0.00000037,-0.00000017,0.00062056,-0.0000001
 9,-0.00000018,0.00220580,-0.00000006,-0.00000018,-0.00053715,-0.000000
 31,0.,-0.00280743,0.00000037,0.,-0.02114861,-0.00000027,-0.00000003,0.
 00176931,-0.00000034,0.00000044,0.00573229,0.00000026,0.00000007,0.000
 01173,-0.00000007,-0.00000020,0.00001818,0.00000020,0.00000002,-0.0003
 0683,-0.00000019,0.00000001,0.01796546,-0.00002810,-0.00000062,-0.0000
 6624,0.00004992,0.00000029,0.00009841,-0.00019886,-0.00000016,-0.00004
 828,0.00015684,-0.00000005,-0.00013289,-0.00066674,0.00000039,-0.00010
 906,0.00270341,0.00000018,-0.00082537,-0.00474385,0.00000017,-0.010833
 16,-0.08923239,-0.00000034,-0.33365698,0.00182919,0.00000017,-0.001806
 19,-0.00156598,-0.00000046,0.00078695,-0.00005864,0.00000001,0.0000446
 4,0.00000697,0.00000009,-0.00000745,0.00002668,0.00000012,-0.00001851,
 0.09206373,0.00000007,0.34639111,-0.00009302,-0.00000028,-0.00008165,0
 .00008543,0.00000008,-0.00000319,-0.00000023,0.00000005,0.00006263,0.0
 0000677,0.00000009,0.00005714,0.00040942,0.00000002,-0.00000850,-0.000
 28869,0.00000039,-0.00224733,-0.00340015,-0.00000037,-0.00034944,-0.01
 684418,0.00000021,0.01721632,-0.24976421,-0.00000002,0.13712006,0.0069
 7447,0.00000006,-0.00408401,0.00008925,0.00000006,-0.00002276,-0.00000
 553,-0.00000004,-0.00000311,-0.00000058,0.,0.00000712,0.00088329,-0.00
 000010,-0.00043158,0.26181355,-0.00000008,-0.00021211,0.00000001,0.000
 00021,-0.00022834,0.00000017,-0.00000004,-0.00001107,0.00000022,-0.000
 00002,0.00001064,-0.00000014,-0.00000011,0.00112042,-0.00000001,-0.000
 00014,0.00232238,-0.00000022,-0.00000010,0.00679673,0.00000017,0.00000
 003,0.00359723,-0.00000014,-0.00000005,-0.03145839,-0.00000036,0.00000
 041,0.00088483,0.00000022,0.00000003,0.00016442,-0.00000007,-0.0000001
 4,0.00001690,0.00000017,-0.00000001,0.00001814,-0.00000012,0.00000002,
 -0.00416413,0.00000007,-0.00000007,0.02306112,-0.00020650,0.00000044,-
 0.00044829,0.00010229,-0.00000018,-0.00007156,0.00006232,0.00000006,-0
 .00015132,0.00003233,-0.00000001,0.00015779,0.00148390,-0.00000020,0.0
 0038241,-0.00072118,-0.00000026,-0.00606871,-0.00359893,0.00000008,0.0
 0087413,-0.01064797,0.00000008,0.01003428,0.13626291,-0.00000008,-0.15
 448271,0.02499042,0.00000021,-0.00791100,0.00004530,-0.00000004,0.0000
 1170,-0.00000317,-0.00000003,-0.00005493,0.00001465,-0.00000006,-0.000
 00726,0.00076631,0.,0.00031459,-0.14794570,0.,0.15655965,0.00001904,-0
 .00000072,0.00006658,0.00047835,0.00000032,-0.00019973,-0.00029935,-0.
 00000016,0.00077384,0.00013453,-0.00000003,0.00072719,0.00045341,0.000
 00041,-0.00138074,-0.01757957,0.00000028,-0.01513338,-0.00306712,0.000
 00010,0.00029263,-0.00022375,-0.00000031,0.00186774,0.00578460,0.00000
 017,0.00328702,-0.26447902,-0.00000047,-0.12933953,0.00012331,0.000000
 03,-0.00005570,0.00008956,0.00000009,0.00004495,0.00007491,0.00000013,
 -0.00005870,0.00039179,0.00000005,0.00008940,0.00013441,0.00000006,-0.
 00063699,0.27796489,0.00000003,-0.00014804,-0.00000003,0.00000027,-0.0
 0014581,0.00000012,0.,-0.00063169,0.00000037,-0.00000020,0.00121778,-0
 .00000018,-0.00000018,-0.00340352,-0.00000007,-0.00000018,0.00319370,-
 0.00000030,0.00000005,0.00622889,0.00000039,-0.00000001,0.00219922,-0.
 00000029,-0.00000002,0.00129468,-0.00000028,0.00000038,-0.03039461,0.0
 0000024,0.00000008,0.00013325,-0.00000006,-0.00000019,0.00016445,0.000
 00018,0.00000003,0.00001174,-0.00000019,0.,0.00078777,0.00000006,-0.00
 000010,-0.00191877,0.00000001,0.00000004,0.02141095,-0.00023750,-0.000
 00036,0.00029622,-0.00025161,0.00000016,-0.00017213,0.00045081,-0.0000
 0008,-0.00003571,0.00025464,-0.00000002,-0.00143338,-0.00039331,0.0000
 0021,0.00070799,0.01247653,0.00000014,0.01014225,0.00342474,0.00000005
 ,0.00007076,-0.00014546,-0.00000015,-0.00627255,-0.02604555,0.00000009
 ,-0.00679977,-0.12832652,-0.00000024,-0.13829734,-0.00005583,0.0000000
 1,0.00001069,-0.00002267,0.00000004,0.00001161,-0.00006601,0.00000006,
 0.00004451,-0.00143169,0.00000003,-0.00013159,0.00071399,0.00000003,0.
 00086124,0.13965543,0.00000002,0.14099721\\-0.00028912,0.,0.00033726,-
 0.00012887,0.,-0.00040949,0.00013426,0.,0.00013188,-0.00023336,0.,-0.0
 0012834,0.00036640,0.,0.00003085,-0.00037336,0.,-0.00002930,0.00023975
 ,0.,0.00012868,-0.00014136,0.,-0.00013004,0.00012817,0.,0.00040764,0.0
 0029509,0.,-0.00034232,0.00001370,0.,-0.00000307,0.00002665,0.,0.00001
 322,0.00004239,0.,-0.00005151,-0.00004071,0.,0.00005104,-0.00002529,0.
 ,-0.00001095,-0.00001433,0.,0.00000444\\\@


 THE NUMBERS ARE MEANINGLESS, BUT THE TRENDS ARE IMPORTANT.
     -- LARRY BURGGRAF
 Job cpu time:       0 days  0 hours 27 minutes 59.8 seconds.
 File lengths (MBytes):  RWF=     88 Int=      0 D2E=      0 Chk=      4 Scr=      1
 Normal termination of Gaussian 09 at Fri Oct 15 18:48:02 2021.
